version 2
run BusPLC20Meters-1-20141127-15:47:50-8984
attr configname BusPLC20Meters
attr datetime 20141127-15:47:50
attr experiment BusPLC20Meters
attr inifile pruebawirelessmu.ini
attr iterationvars "$0=300, $1=0.04, $2=900, $3=0.04"
attr iterationvars2 "$0=300, $1=0.04, $2=900, $3=0.04, $repetition=1"
attr measurement "$0=300, $1=0.04, $2=900, $3=0.04"
attr network WirelessNetworkMU
attr processid 8984
attr repetition 1
attr replication #1
attr resultdir results
attr runnumber 1
attr seedset 1

vector 4  WirelessNetworkMU.node[0].net  coordenadaX:vector  ETV
attr source  posX
attr title  "Position X, vector"
vector 5  WirelessNetworkMU.node[0].net  coordenadaY:vector  ETV
attr source  posY
attr title  "Position Y, vector"
vector 8  WirelessNetworkMU.node[1].net  coordenadaX:vector  ETV
attr source  posX
attr title  "Position X, vector"
vector 9  WirelessNetworkMU.node[1].net  coordenadaY:vector  ETV
attr source  posY
attr title  "Position Y, vector"
vector 12  WirelessNetworkMU.node[2].net  coordenadaX:vector  ETV
attr source  posX
attr title  "Position X, vector"
vector 13  WirelessNetworkMU.node[2].net  coordenadaY:vector  ETV
attr source  posY
attr title  "Position Y, vector"
vector 16  WirelessNetworkMU.node[3].net  coordenadaX:vector  ETV
attr source  posX
attr title  "Position X, vector"
vector 17  WirelessNetworkMU.node[3].net  coordenadaY:vector  ETV
attr source  posY
attr title  "Position Y, vector"
vector 20  WirelessNetworkMU.node[4].net  coordenadaX:vector  ETV
attr source  posX
attr title  "Position X, vector"
vector 21  WirelessNetworkMU.node[4].net  coordenadaY:vector  ETV
attr source  posY
attr title  "Position Y, vector"
vector 24  WirelessNetworkMU.node[5].net  coordenadaX:vector  ETV
attr source  posX
attr title  "Position X, vector"
vector 25  WirelessNetworkMU.node[5].net  coordenadaY:vector  ETV
attr source  posY
attr title  "Position Y, vector"
vector 28  WirelessNetworkMU.node[6].net  coordenadaX:vector  ETV
attr source  posX
attr title  "Position X, vector"
vector 29  WirelessNetworkMU.node[6].net  coordenadaY:vector  ETV
attr source  posY
attr title  "Position Y, vector"
vector 32  WirelessNetworkMU.node[7].net  coordenadaX:vector  ETV
attr source  posX
attr title  "Position X, vector"
vector 33  WirelessNetworkMU.node[7].net  coordenadaY:vector  ETV
attr source  posY
attr title  "Position Y, vector"
vector 36  WirelessNetworkMU.node[8].net  coordenadaX:vector  ETV
attr source  posX
attr title  "Position X, vector"
vector 37  WirelessNetworkMU.node[8].net  coordenadaY:vector  ETV
attr source  posY
attr title  "Position Y, vector"
vector 40  WirelessNetworkMU.node[9].net  coordenadaX:vector  ETV
attr source  posX
attr title  "Position X, vector"
vector 41  WirelessNetworkMU.node[9].net  coordenadaY:vector  ETV
attr source  posY
attr title  "Position Y, vector"
vector 44  WirelessNetworkMU.node[10].net  coordenadaX:vector  ETV
attr source  posX
attr title  "Position X, vector"
vector 45  WirelessNetworkMU.node[10].net  coordenadaY:vector  ETV
attr source  posY
attr title  "Position Y, vector"
vector 48  WirelessNetworkMU.node[11].net  coordenadaX:vector  ETV
attr source  posX
attr title  "Position X, vector"
vector 49  WirelessNetworkMU.node[11].net  coordenadaY:vector  ETV
attr source  posY
attr title  "Position Y, vector"
vector 52  WirelessNetworkMU.node[12].net  coordenadaX:vector  ETV
attr source  posX
attr title  "Position X, vector"
vector 53  WirelessNetworkMU.node[12].net  coordenadaY:vector  ETV
attr source  posY
attr title  "Position Y, vector"
vector 56  WirelessNetworkMU.node[13].net  coordenadaX:vector  ETV
attr source  posX
attr title  "Position X, vector"
vector 57  WirelessNetworkMU.node[13].net  coordenadaY:vector  ETV
attr source  posY
attr title  "Position Y, vector"
vector 60  WirelessNetworkMU.node[14].net  coordenadaX:vector  ETV
attr source  posX
attr title  "Position X, vector"
vector 61  WirelessNetworkMU.node[14].net  coordenadaY:vector  ETV
attr source  posY
attr title  "Position Y, vector"
vector 64  WirelessNetworkMU.node[15].net  coordenadaX:vector  ETV
attr source  posX
attr title  "Position X, vector"
vector 65  WirelessNetworkMU.node[15].net  coordenadaY:vector  ETV
attr source  posY
attr title  "Position Y, vector"
vector 68  WirelessNetworkMU.node[16].net  coordenadaX:vector  ETV
attr source  posX
attr title  "Position X, vector"
vector 69  WirelessNetworkMU.node[16].net  coordenadaY:vector  ETV
attr source  posY
attr title  "Position Y, vector"
vector 72  WirelessNetworkMU.node[17].net  coordenadaX:vector  ETV
attr source  posX
attr title  "Position X, vector"
vector 73  WirelessNetworkMU.node[17].net  coordenadaY:vector  ETV
attr source  posY
attr title  "Position Y, vector"
vector 76  WirelessNetworkMU.node[18].net  coordenadaX:vector  ETV
attr source  posX
attr title  "Position X, vector"
vector 77  WirelessNetworkMU.node[18].net  coordenadaY:vector  ETV
attr source  posY
attr title  "Position Y, vector"
vector 80  WirelessNetworkMU.node[19].net  coordenadaX:vector  ETV
attr source  posX
attr title  "Position X, vector"
vector 81  WirelessNetworkMU.node[19].net  coordenadaY:vector  ETV
attr source  posY
attr title  "Position Y, vector"
vector 86  WirelessNetworkMU.colectores[0].netColector  coordenadaXCollector:vector  ETV
attr source  posXCollector
attr title  "Position X Collector, vector"
vector 87  WirelessNetworkMU.colectores[0].netColector  coordenadaYCollector:vector  ETV
attr source  posYCollector
attr title  "Position Y Collector, vector"
vector 85  WirelessNetworkMU.colectores[0].netColector  NodosQueEnviaronWAM:vector  ETV
attr source  medidorFuenteWAM
attr title  "Nodos Fuente WAM:, vector"
4	0	0	11.676615956239
5	0	0	27.921174627729
8	0	0	20.169085700065
9	0	0	26.111606113613
12	0	0	0.0032026702538133
13	0	0	3.5874845376238
16	0	0	8.4653118969873
17	0	0	27.973134431057
20	0	0	4.109164991416
21	0	0	6.610491335392
24	0	0	2.5854806751013
25	0	0	11.104260331951
28	0	0	5.2152859158814
29	0	0	10.861500726081
32	0	0	9.6757003022358
33	0	0	18.752889130265
36	0	0	11.109489122406
37	0	0	26.195094033144
40	0	0	15.086868492886
41	0	0	23.696705710143
44	0	0	11.737446533516
45	0	0	8.7716583637521
48	0	0	19.186146019027
49	0	0	14.687348555773
52	0	0	5.7246629716828
53	0	0	12.416681025177
56	0	0	24.587288236246
57	0	0	6.4281621612608
60	0	0	0.76685268711299
61	0	0	14.963589401916
64	0	0	18.773090211675
65	0	0	25.590936627239
68	0	0	11.684534520842
69	0	0	12.801734657027
72	0	0	15.643315165304
73	0	0	12.059559962712
76	0	0	3.9308342346922
77	0	0	26.295578258112
80	0	0	5.546841531992
81	0	0	21.794898593798
85	108	1.35651711926	16
85	333	1.39587711926	16
85	558	1.43651711926	16
85	783	1.47619711926	16
85	1008	1.51715711926	16
85	1205	1.53885279592	19
85	1458	1.55779711926	16
85	1655	1.57757279592	19
85	1908	1.59587711926	16
85	2105	1.61949279592	19
85	2358	1.63587711926	16
85	2555	1.65917279592	19
85	2808	1.67619711926	16
85	3005	1.69949279592	19
85	3258	1.71587711926	16
85	3455	1.73789279592	19
85	3708	1.75747711926	16
85	3927	1.771701915274	14
85	4130	1.77757279592	19
85	4383	1.79715711926	16
85	4602	1.811381915274	14
85	4805	1.81885279592	19
85	5063	1.83715711926	16
85	5273	1.840231345645	7
85	5502	1.851061915274	14
85	5705	1.85917279592	19
85	5963	1.87779711926	16
85	6173	1.881191345645	7
85	6408	1.889781915274	14
85	6640	1.894625592695	22
85	6832	1.89821279592	19
85	7090	1.91715711926	16
85	7300	1.919911345645	7
85	7535	1.931061915274	14
85	7740	1.93789279592	19
85	7989	1.949025592695	22
85	8218	1.95587711926	16
85	8429	1.960551345645	7
85	8670	1.969825592695	22
85	8890	1.975861915274	14
85	9088	1.97917279592	19
85	9346	1.99715711926	16
85	9556	2.000551345645	7
85	9791	2.010741915274	14
85	10022	2.015265592695	22
85	10215	2.01949279592	19
85	10473	2.03683711926	16
85	10683	2.039911345645	7
85	10939	2.050741915274	14
85	11193	2.057329592695	22
85	11386	2.06493279592	19
85	11644	2.07587711926	16
85	11854	2.079271345645	7
85	12090	2.090101915274	14
85	12320	2.093665592695	22
85	12513	2.09949279592	19
85	12771	2.11651711926	16
85	12981	2.120231345645	7
85	13222	2.130145592695	22
85	13442	2.137141915274	14
85	13642	2.14205279592	19
85	13900	2.15587711926	16
85	14110	2.159591345645	7
85	14351	2.169185592695	22
85	14570	2.175221915274	14
85	14769	2.17949279592	19
85	15028	2.19779711926	16
85	15239	2.204391345645	7
85	15474	2.210421915274	14
85	15706	2.215265592695	22
85	15898	2.21917279592	19
85	16155	2.23683711926	16
85	16366	2.241511345645	7
85	16607	2.249825592695	22
85	16827	2.256181915274	14
85	17027	2.26333279592	19
85	17284	2.27587711926	16
85	17495	2.280551345645	7
85	17730	2.291061915274	14
85	17963	2.296225592695	22
85	18156	2.30077279592	19
85	18414	2.31715711926	16
85	18624	2.320231345645	7
85	18864	2.329185592695	22
85	19132	2.337285915274	14
85	19330	2.34109279592	19
85	19588	2.35747711926	16
85	19798	2.360871345645	7
85	20039	2.370145592695	22
85	20259	2.374261915274	14
85	20457	2.37789279592	19
85	20715	2.39683711926	16
85	20925	2.399591345645	7
85	21160	2.410421915274	14
85	21392	2.415905592695	22
85	21584	2.41917279592	19
85	21842	2.43715711926	16
85	22052	2.440231345645	7
85	22308	2.451061915274	14
85	22562	2.456689592695	22
85	22755	2.46141279592	19
85	23013	2.47619711926	16
85	23223	2.479591345645	7
85	23458	2.489461915274	14
85	23689	2.494305592695	22
85	23882	2.49885279592	19
85	24139	2.51555711926	16
85	24350	2.521511345645	7
85	24596	2.529825592695	22
85	24823	2.533817877733	18
85	25036	2.536821915274	14
85	25236	2.54141279592	19
85	25494	2.55715711926	16
85	25704	2.560551345645	7
85	25950	2.570465592695	22
85	26172	2.573177877733	18
85	26369	2.57821279592	19
85	26612	2.588661915274	14
85	26848	2.59683711926	16
85	27058	2.599591345645	7
85	27297	2.610421915274	14
85	27531	2.614777877733	18
85	27751	2.617825592695	22
85	27944	2.62429279592	19
85	28202	2.63747711926	16
85	28412	2.640551345645	7
85	28657	2.649185592695	22
85	28886	2.654777877733	18
85	29077	2.65821279592	19
85	29320	2.667381915274	14
85	29555	2.67555711926	16
85	29766	2.680231345645	7
85	30013	2.690785592695	22
85	30236	2.696821915274	14
85	30437	2.70141279592	19
85	30688	2.707577877733	18
85	30916	2.71619711926	16
85	31126	2.720231345645	7
85	31366	2.729461915274	14
85	31594	2.733025592695	22
85	31823	2.737337877733	18
85	32014	2.74141279592	19
85	32272	2.75779711926	16
85	32482	2.760871345645	7
85	32722	2.769461915274	14
85	32955	2.773345592695	22
85	33178	2.777337877733	18
85	33415	2.78443679592	19
85	33672	2.79555711926	16
85	33883	2.800871345645	7
85	34289	2.816645915274	14
85	34519	2.822769592695	22
85	34715	2.83133279592	19
85	34974	2.83619711926	16
85	35205	2.839591345645	7
85	35469	2.846601877733	18
85	35694	2.849505592695	22
85	35918	2.852537877733	18
85	36113	2.85789279592	19
85	36356	2.864821915274	14
85	36591	2.87683711926	16
85	36802	2.881191345645	7
85	37063	2.890421915274	14
85	37317	2.893817877733	18
85	37510	2.89917279592	19
85	37758	2.902129592695	22
85	37988	2.91715711926	16
85	38198	2.920551345645	7
85	38443	2.930465592695	22
85	38672	2.934777877733	18
85	38864	2.93917279592	19
85	39106	2.942261915274	14
85	39342	2.95555711926	16
85	39552	2.959591345645	7
85	39793	2.970421915274	14
85	40026	2.973497877733	18
85	40219	2.97885279592	19
85	40468	2.989985592695	22
85	40698	2.99651711926	16
85	40908	2.999591345645	7
85	41149	3.010421915274	14
85	41379	3.01725279592	19
85	41652	3.023561877733	18
85	41921	3.031729592695	22
85	42147	3.03747711926	16
85	42357	3.041511345645	7
85	42603	3.050465592695	22
85	42830	3.053497877733	18
85	43043	3.056501915274	14
85	43241	3.05949279592	19
85	43498	3.07619711926	16
85	43709	3.081191345645	7
85	43948	3.089781915274	14
85	44182	3.094305592695	22
85	44375	3.09757279592	19
85	44625	3.100857877733	18
85	44852	3.11715711926	16
85	45063	3.121511345645	7
85	45303	3.129781915274	14
85	45538	3.134777877733	18
85	45731	3.13885279592	19
85	45981	3.145185592695	22
85	46210	3.15651711926	16
85	46421	3.161511345645	7
85	46681	3.169461915274	14
85	46937	3.173817877733	18
85	47129	3.17853279592	19
85	47424	3.187393592695	22
85	47655	3.19747711926	16
85	47866	3.203431345645	7
85	48112	3.211105592695	22
85	48341	3.214457877733	18
85	48531	3.21789279592	19
85	48774	3.223861915274	14
85	49010	3.23651711926	16
85	49220	3.239591345645	7
85	49466	3.250145592695	22
85	49689	3.253177877733	18
85	49930	3.257781915274	14
85	50150	3.26347679592	19
85	50408	3.27587711926	16
85	50618	3.279911345645	7
85	50864	3.291105592695	22
85	51091	3.294137877733	18
85	51305	3.297781915274	14
85	51504	3.30397279592	19
85	51762	3.31747711926	16
85	51972	3.320231345645	7
85	52212	3.330741915274	14
85	52445	3.333497877733	18
85	52637	3.33949279592	19
85	52886	3.344225592695	22
85	53116	3.35715711926	16
85	53326	3.361191345645	7
85	53565	3.369461915274	14
85	53801	3.374457877733	18
85	54021	3.377825592695	22
85	54214	3.38333279592	19
85	54472	3.39747711926	16
85	54682	3.400871345645	7
85	54923	3.410101915274	14
85	55150	3.413025592695	22
85	55370	3.41853279592	19
85	55642	3.424201877733	18
85	55871	3.43747711926	16
85	56082	3.442471345645	7
85	56327	3.449185592695	22
85	56550	3.452857877733	18
85	56774	3.457781915274	14
85	56975	3.461833842375	17
85	57200	3.47325279592	19
85	57446	3.480871345645	7
85	57687	3.48707711926	16
85	57908	3.491061915274	14
85	58141	3.494137877733	18
85	58366	3.498465592695	22
85	58563	3.503753842375	17
85	58793	3.51581279592	19
85	59079	3.520551345645	7
85	59325	3.52850111926	16
85	59603	3.533817877733	18
85	59800	3.53789279592	19
85	60024	3.542793842375	17
85	60272	3.545505592695	22
85	60497	3.556485915274	14
85	60716	3.561191345645	7
85	61170	3.574777877733	18
85	61410	3.577925915274	14
85	61663	3.58162111926	16
85	61859	3.58589279592	19
85	62109	3.588993592695	22
85	62315	3.595273842375	17
85	62563	3.59907711926	16
85	62774	3.603431345645	7
85	63015	3.609461915274	14
85	63242	3.613025592695	22
85	63444	3.61789279592	19
85	63714	3.623753842375	17
85	63964	3.628681877733	18
85	64191	3.63683711926	16
85	64402	3.641191345645	7
85	64648	3.649825592695	22
85	64871	3.653177877733	18
85	65088	3.656181915274	14
85	65291	3.65917279592	19
85	65513	3.662153842375	17
85	65768	3.67587711926	16
85	65979	3.680231345645	7
85	66219	3.689781915274	14
85	66454	3.693817877733	18
85	66674	3.697185592695	22
85	67030	3.70795679592	19
85	67258	3.712857842375	17
85	67508	3.71555711926	16
85	67719	3.721511345645	7
85	67959	3.730421915274	14
85	68188	3.733177877733	18
85	68412	3.736225592695	22
85	68612	3.74269279592	19
85	68834	3.746633842375	17
85	69090	3.75555711926	16
85	69300	3.759271345645	7
85	69540	3.770101915274	14
85	69774	3.775265592695	22
85	69972	3.77821279592	19
85	70264	3.785673842375	17
85	70534	3.790745877733	18
85	70762	3.79747711926	16
85	70972	3.800231345645	7
85	71233	3.810101915274	14
85	71483	3.812857877733	18
85	71706	3.815729592695	22
85	71959	3.823433842375	17
85	72180	3.82923679592	19
85	72440	3.83715711926	16
85	72651	3.841191345645	7
85	72899	3.849185592695	22
85	73124	3.852081754938	6
85	73349	3.855417877733	18
85	73546	3.85949279592	19
85	73773	3.862473842375	17
85	74024	3.867121754938	6
85	74241	3.871861915274	14
85	74473	3.87747711926	16
85	74683	3.881191345645	7
85	74929	3.890465592695	22
85	75157	3.893497877733	18
85	75352	3.89757279592	19
85	75602	3.901941915274	14
85	75804	3.905353842375	17
85	76053	3.911281754938	6
85	76281	3.91683711926	16
85	76491	3.919911345645	7
85	76737	3.929825592695	22
85	76964	3.933497877733	18
85	77161	3.93917279592	19
85	77414	3.943861915274	14
85	77615	3.947273842375	17
85	77863	3.950321754938	6
85	78091	3.95683711926	16
85	78301	3.960231345645	7
85	78546	3.969185592695	22
85	78776	3.973817877733	18
85	78970	3.97757279592	19
85	79220	3.981941915274	14
85	79450	3.985841754938	6
85	79655	3.996553842375	17
85	79912	4.000231345645	7
85	80165	4.00498111926	16
85	80395	4.011061915274	14
85	80629	4.013817877733	18
85	80848	4.016545592695	22
85	81053	4.02237279592	19
85	81324	4.025521754938	6
85	81543	4.031577842375	17
85	81794	4.03715711926	16
85	82005	4.041511345645	7
85	82252	4.049505592695	22
85	82468	4.052661915274	14
85	82673	4.05725279592	19
85	82928	4.060217877733	18
85	83126	4.063113842375	17
85	83379	4.071601754938	6
85	83604	4.07747711926	16
85	83815	4.084711345645	7
85	84060	4.089505592695	22
85	84288	4.094777877733	18
85	84507	4.098101915274	14
85	84710	4.10141279592	19
85	84964	4.107121754938	6
85	85195	4.11555711926	16
85	85390	4.118473842375	17
85	85636	4.125991345645	7
85	85872	4.129505592695	22
85	86149	4.135737877733	18
85	86348	4.14045279592	19
85	86607	4.145841754938	6
85	86799	4.148553842375	17
85	87052	4.157125915274	14
85	87329	4.16291711926	16
85	87548	4.166455345645	7
85	87785	4.170145592695	22
85	88009	4.172857877733	18
85	88208	4.17789279592	19
85	88457	4.182261915274	14
85	88688	4.186481754938	6
85	88887	4.194633842375	17
85	89141	4.19907711926	16
85	89351	4.202151345645	7
85	89596	4.209185592695	22
85	89869	4.21757279592	19
85	90122	4.222793842375	17
85	90372	4.226801754938	6
85	90593	4.234565915274	14
85	90861	4.240551345645	7
85	91153	4.247385877733	18
85	91371	4.250421915274	14
85	91607	4.254137877733	18
85	91803	4.25853279592	19
85	92031	4.261833842375	17
85	92279	4.264545592695	22
85	92551	4.271425754938	6
85	92779	4.27715711926	16
85	92989	4.279911345645	7
85	93236	4.290145592695	22
85	93451	4.292981915274	14
85	93660	4.29757279592	19
85	93889	4.303753842375	17
85	94140	4.308217877733	18
85	94369	4.31619711926	16
85	94603	4.321191345645	7
85	94866	4.326145754938	6
85	95085	4.329461915274	14
85	95314	4.333177877733	18
85	95537	4.336545592695	22
85	95734	4.33949279592	19
85	95961	4.343113842375	17
85	96209	4.346161754938	6
85	96437	4.35683711926	16
85	96647	4.360231345645	7
85	96893	4.369185592695	22
85	97118	4.373177877733	18
85	97335	4.376501915274	14
85	97548	4.383433842375	17
85	97798	4.389361754938	6
85	98027	4.39587711926	16
85	98239	4.401511345645	7
85	98449	4.40541279592	19
85	98705	4.409505592695	22
85	98928	4.412537877733	18
85	99147	4.416501915274	14
85	99350	4.42045279592	19
85	99578	4.423753842375	17
85	99827	4.429041754938	6
85	100055	4.43619711926	16
85	100265	4.439911345645	7
85	100526	4.449781915274	14
85	100780	4.453817877733	18
85	100978	4.45821279592	19
85	101205	4.461513842375	17
85	101455	4.465649592695	22
85	101677	4.469041754938	6
85	101905	4.47747711926	16
85	102115	4.480871345645	7
85	102355	4.490101915274	14
85	102583	4.493025592695	22
85	102785	4.49789279592	19
85	103062	4.503753842375	17
85	103313	4.509641877733	18
85	103544	4.515761754938	6
85	103756	4.520551345645	7
85	103986	4.52387711926	16
85	104224	4.530465592695	22
85	104455	4.537017877733	18
85	104659	4.541513842375	17
85	104902	4.545141915274	14
85	105132	4.550641754938	6
85	105430	4.55779711926	16
85	105645	4.56346079592	19
85	105892	4.566311345645	7
85	106128	4.569825592695	22
85	106357	4.574137877733	18
85	106548	4.57725279592	19
85	106780	4.581833842375	17
85	107030	4.585521754938	6
85	107248	4.592501915274	14
85	107478	4.59619711926	16
85	107689	4.601511345645	7
85	107928	4.609781915274	14
85	108163	4.614457877733	18
85	108359	4.61885279592	19
85	108614	4.622305592695	22
85	108840	4.626801754938	6
85	109038	4.634313842375	17
85	109326	4.639911345645	7
85	109556	4.64274111926	16
85	109786	4.650101915274	14
85	110020	4.654625592695	22
85	110219	4.65821279592	19
85	110519	4.666313842375	17
85	110790	4.669641877733	18
85	111020	4.67619711926	16
85	111230	4.679911345645	7
85	111472	4.686785754938	6
85	111692	4.691061915274	14
85	111925	4.694305592695	22
85	112122	4.69917279592	19
85	112351	4.703753842375	17
85	112620	4.706801754938	6
85	112867	4.713161877733	18
85	113091	4.71747711926	16
85	113301	4.721191345645	7
85	113547	4.730145592695	22
85	113775	4.734137877733	18
85	113974	4.73821279592	19
85	114222	4.741833842375	17
85	114493	4.745521754938	6
85	114705	4.748805915274	14
85	114941	4.75715711926	16
85	115151	4.760871345645	7
85	115391	4.769781915274	14
85	115619	4.772857877733	18
85	115849	4.777825592695	22
85	116048	4.781513842375	17
85	116268	4.78493279592	19
85	116519	4.790961754938	6
85	116747	4.79779711926	16
85	116957	4.801191345645	7
85	117204	4.810465592695	22
85	117451	4.813497877733	18
85	117671	4.81885279592	19
85	117901	4.823113842375	17
85	118150	4.826481754938	6
85	118367	4.832325915274	14
85	118599	4.83683711926	16
85	118809	4.840551345645	7
85	119048	4.850421915274	14
85	119283	4.854777877733	18
85	119481	4.85949279592	19
85	119738	4.864545592695	22
85	119966	4.871601754938	6
85	120193	4.87651711926	16
85	120437	4.884697842375	17
85	120693	4.890101915274	14
85	120924	4.892857877733	18
85	121166	4.898471345645	7
85	121447	4.90315679592	19
85	121939	4.915737842375	17
85	122191	4.918785754938	6
85	122411	4.92227711926	16
85	122641	4.929781915274	14
85	122876	4.933817877733	18
85	123096	4.936657592695	22
85	123313	4.939751345645	7
85	123572	4.94493279592	19
85	123820	4.948769722899	22
85	124049	4.952881754938	6
85	124272	4.95651711926	16
85	124483	4.961191345645	7
85	124697	4.965833842375	17
85	124943	4.969781915274	14
85	125179	4.974457877733	18
85	125369	4.97725279592	19
85	125601	4.982793842375	17
85	125849	4.985505592695	22
85	126072	4.990961754938	6
85	126300	4.99651711926	16
85	126510	4.999591345645	7
85	126755	5.009505592695	22
85	127005	5.014777877733	18
85	127232	5.02141279592	19
85	127479	5.026565915274	14
85	127709	5.029361754938	6
85	127937	5.03587711926	16
85	128149	5.039591345645	7
85	128417	5.049505592695	22
85	128670	5.054137877733	18
85	128865	5.056857842375	17
85	129111	5.059701915274	14
85	129317	5.063433842375	17
85	129565	5.066801754938	6
85	129761	5.07165279592	19
85	130013	5.07555711926	16
85	130224	5.081511345645	7
85	130484	5.089461915274	14
85	130740	5.093817877733	18
85	130938	5.09853279592	19
85	131164	5.101833842375	17
85	131415	5.107121754938	6
85	131638	5.113009592695	22
85	131865	5.11747711926	16
85	132084	5.125671345645	7
85	132322	5.130465592695	22
85	132552	5.134457877733	18
85	132770	5.137781915274	14
85	132969	5.14077279592	19
85	133227	5.145201754938	6
85	133425	5.153673842375	17
85	133676	5.15651711926	16
85	133886	5.159271345645	7
85	134126	5.169461915274	14
85	134380	5.173497877733	18
85	134628	5.179249592695	22
85	134828	5.18333279592	19
85	135079	5.186161754938	6
85	135278	5.194633842375	17
85	135521	5.199271345645	7
85	135760	5.20547711926	16
85	135988	5.210145592695	22
85	136210	5.214261915274	14
85	136413	5.21885279592	19
85	136642	5.223753842375	17
85	136893	5.226937877733	18
85	137119	5.234481754938	6
85	137334	5.239911345645	7
85	137564	5.24323711926	16
85	137814	5.249461915274	14
85	138071	5.254457877733	18
85	138296	5.258289592695	22
85	138497	5.263753842375	17
85	138745	5.266481754938	6
85	138940	5.27165279592	19
85	139194	5.27715711926	16
85	139404	5.280871345645	7
85	139650	5.290785592695	22
85	139872	5.296181915274	14
85	140077	5.29949279592	19
85	140335	5.302457877733	18
85	140555	5.306481754938	6
85	140753	5.311753842375	17
85	141003	5.31555711926	16
85	141214	5.319911345645	7
85	141460	5.330465592695	22
85	141682	5.334261915274	14
85	141911	5.337017877733	18
85	142115	5.343113842375	17
85	142365	5.348401754938	6
85	142561	5.35261279592	19
85	142814	5.35651711926	16
85	143024	5.360551345645	7
85	143270	5.369825592695	22
85	143493	5.372537877733	18
85	143710	5.375861915274	14
85	143923	5.381833842375	17
85	144171	5.385521754938	6
85	144367	5.39197279592	19
85	144619	5.39555711926	16
85	144830	5.401511345645	7
85	145069	5.409461915274	14
85	145306	5.414457877733	18
85	145550	5.418145592695	22
85	145773	5.421833842375	17
85	146021	5.424881754938	6
85	146212	5.42923679592	19
85	146470	5.43747711926	16
85	146680	5.441191345645	7
85	146926	5.450465592695	22
85	147148	5.453177877733	18
85	147371	5.457781915274	14
85	147579	5.462793842375	17
85	147827	5.465841754938	6
85	148022	5.47325279592	19
85	148277	5.47747711926	16
85	148492	5.485351345645	7
85	148734	5.489825592695	22
85	148957	5.492537877733	18
85	149175	5.496501915274	14
85	149383	5.50109279592	19
85	149637	5.507121754938	6
85	149830	5.511433842375	17
85	150086	5.51683711926	16
85	150296	5.520231345645	7
85	150541	5.529505592695	22
85	150763	5.534261915274	14
85	150966	5.53757279592	19
85	151196	5.543113842375	17
85	151467	5.547257877733	18
85	151714	5.552705754938	6
85	151938	5.55715711926	16
85	152148	5.560871345645	7
85	152393	5.569185592695	22
85	152621	5.574777877733	18
85	152818	5.57917279592	19
85	153046	5.583113842375	17
85	153295	5.585841754938	6
85	153519	5.596021915274	14
85	153736	5.599591345645	7
85	153966	5.60323711926	16
85	154197	5.609781915274	14
85	154424	5.612705592695	22
85	154657	5.617977877733	18
85	154856	5.622793842375	17
85	155076	5.62557279592	19
85	155378	5.633665754938	6
85	155600	5.63683711926	16
85	155811	5.641191345645	7
85	156056	5.649185592695	22
85	156277	5.653941915274	14
85	156483	5.65917279592	19
85	156710	5.662153842375	17
85	156965	5.665521754938	6
85	157207	5.669497877733	18
85	157456	5.674301006674	9
85	157671	5.679911345645	7
85	157913	5.689461915274	14
85	158144	5.692537877733	18
85	158367	5.69539711926	16
85	158627	5.703433842375	17
85	158880	5.709357006674	9
85	159108	5.712241754938	6
85	159382	5.71811711926	16
85	159577	5.72107679592	19
85	159837	5.725809592695	22
85	160060	5.729781915274	14
85	160293	5.732537877733	18
85	160492	5.73757279592	19
85	160722	5.742473842375	17
85	160975	5.746481754938	6
85	161249	5.753661006674	9
85	161473	5.75715711926	16
85	161714	5.761137722899	22
85	161957	5.767415345645	7
85	162208	5.770421915274	14
85	162467	5.777009592695	22
85	162696	5.780537877733	18
85	162900	5.784713842375	17
85	163150	5.787437006674	9
85	163371	5.790321754938	6
85	163599	5.79715711926	16
85	163812	5.801191345645	7
85	164014	5.80413279592	19
85	164272	5.809461915274	14
85	164499	5.812385592695	22
85	164704	5.81917279592	19
85	164961	5.823097877733	18
85	165188	5.826481754938	6
85	165408	5.829357006674	9
85	165638	5.83555711926	16
85	165849	5.839591345645	7
85	166053	5.842313842375	17
85	166314	5.849505592695	22
85	166592	5.856697877733	18
85	166796	5.861513842375	17
85	167097	5.866481754938	6
85	167343	5.87261279592	19
85	167598	5.87587711926	16
85	167809	5.879591345645	7
85	168044	5.883757006674	9
85	168276	5.889825592695	22
85	168503	5.893497877733	18
85	168746	5.89917279592	19
85	169002	5.904437915274	14
85	169235	5.909037006674	9
85	169503	5.914806018898	14
85	169759	5.91779711926	16
85	169991	5.920551345645	7
85	170224	5.924689754938	6
85	170452	5.930101915274	14
85	170682	5.932857877733	18
85	170883	5.93949279592	19
85	171149	5.946801754938	6
85	171376	5.952865592695	22
85	171649	5.95779711926	16
85	171874	5.961341006674	9
85	172083	5.964711345645	7
85	172330	5.971105592695	22
85	172580	5.973817877733	18
85	172800	5.97853279592	19
85	173028	5.983257842375	17
85	173324	5.987701915274	14
85	173558	5.991745754938	6
85	173754	5.994585934373	17
85	174005	5.99843711926	16
85	174216	6.001511345645	7
85	174448	6.005037006674	9
85	174683	6.009825592695	22
85	174898	6.012661915274	14
85	175138	6.017977877733	18
85	175334	6.02109279592	19
85	175592	6.025841754938	6
85	175785	6.029833842375	17
85	176039	6.033837006674	9
85	176274	6.039591345645	7
85	176536	6.04594111926	16
85	176763	6.049185592695	22
85	176979	6.052981915274	14
85	177188	6.05789279592	19
85	177417	6.063113842375	17
85	177718	6.067757006674	9
85	177944	6.071561877733	18
85	178168	6.07619711926	16
85	178392	6.078961754938	6
85	178601	6.083751345645	7
85	178846	6.089185592695	22
85	179075	6.093497877733	18
85	179272	6.09789279592	19
85	179504	6.103433842375	17
85	179756	6.108077006674	9
85	179996	6.112501915274	14
85	180251	6.11651711926	16
85	180462	6.120231345645	7
85	180694	6.123585754938	6
85	180923	6.130741915274	14
85	181156	6.133497877733	18
85	181354	6.13885279592	19
85	181617	6.145521754938	6
85	181839	6.149985592695	22
85	182066	6.152877006674	9
85	182290	6.15715711926	16
85	182501	6.161191345645	7
85	182705	6.163913842375	17
85	182968	6.170145592695	22
85	183239	6.177285915274	14
85	183451	6.18205279592	19
85	183709	6.185841754938	6
85	183932	6.189037006674	9
85	184130	6.193993842375	17
85	184419	6.200231345645	7
85	184650	6.20498111926	16
85	184880	6.209461915274	14
85	185109	6.212857877733	18
85	185332	6.215905592695	22
85	185528	6.21949279592	19
85	185761	6.223753842375	17
85	186010	6.226481754938	6
85	186231	6.230637006674	9
85	186459	6.23715711926	16
85	186669	6.239911345645	7
85	186911	6.251061915274	14
85	187145	6.255097877733	18
85	187390	6.259425592695	22
85	187621	6.263753842375	17
85	187870	6.267121754938	6
85	188093	6.271277006674	9
85	188322	6.27555711926	16
85	188517	6.28107679592	19
85	188766	6.286951345645	7
85	189017	6.289781915274	14
85	189268	6.293177877733	18
85	189497	6.297649592695	22
85	189699	6.302473842375	17
85	189957	6.309357006674	9
85	190202	6.31517279592	19
85	190457	6.318145754938	6
85	190667	6.321191345645	7
85	190908	6.329461915274	14
85	191190	6.33507711926	16
85	191436	6.341653707699	23
85	191662	6.345201754938	6
85	191889	6.348537877733	18
85	192123	6.356077006674	9
85	192318	6.35997279592	19