version 2
run BusPLC20Meters-0-20141127-17:04:04-5176
attr configname BusPLC20Meters
attr datetime 20141127-17:04:04
attr experiment BusPLC20Meters
attr inifile pruebawirelessmu.ini
attr iterationvars "$0=300, $1=0.04, $2=900, $3=0.04"
attr iterationvars2 "$0=300, $1=0.04, $2=900, $3=0.04, $repetition=0"
attr measurement "$0=300, $1=0.04, $2=900, $3=0.04"
attr network WirelessNetworkMU
attr processid 5176
attr repetition 0
attr replication #0
attr resultdir results
attr runnumber 0
attr seedset 0

vector 4  WirelessNetworkMU.node[0].net  coordenadaX:vector  ETV
attr source  posX
attr title  "Position X, vector"
vector 5  WirelessNetworkMU.node[0].net  coordenadaY:vector  ETV
attr source  posY
attr title  "Position Y, vector"
vector 8  WirelessNetworkMU.node[1].net  coordenadaX:vector  ETV
attr source  posX
attr title  "Position X, vector"
vector 9  WirelessNetworkMU.node[1].net  coordenadaY:vector  ETV
attr source  posY
attr title  "Position Y, vector"
vector 12  WirelessNetworkMU.node[2].net  coordenadaX:vector  ETV
attr source  posX
attr title  "Position X, vector"
vector 13  WirelessNetworkMU.node[2].net  coordenadaY:vector  ETV
attr source  posY
attr title  "Position Y, vector"
vector 16  WirelessNetworkMU.node[3].net  coordenadaX:vector  ETV
attr source  posX
attr title  "Position X, vector"
vector 17  WirelessNetworkMU.node[3].net  coordenadaY:vector  ETV
attr source  posY
attr title  "Position Y, vector"
vector 20  WirelessNetworkMU.node[4].net  coordenadaX:vector  ETV
attr source  posX
attr title  "Position X, vector"
vector 21  WirelessNetworkMU.node[4].net  coordenadaY:vector  ETV
attr source  posY
attr title  "Position Y, vector"
vector 24  WirelessNetworkMU.node[5].net  coordenadaX:vector  ETV
attr source  posX
attr title  "Position X, vector"
vector 25  WirelessNetworkMU.node[5].net  coordenadaY:vector  ETV
attr source  posY
attr title  "Position Y, vector"
vector 28  WirelessNetworkMU.node[6].net  coordenadaX:vector  ETV
attr source  posX
attr title  "Position X, vector"
vector 29  WirelessNetworkMU.node[6].net  coordenadaY:vector  ETV
attr source  posY
attr title  "Position Y, vector"
vector 32  WirelessNetworkMU.node[7].net  coordenadaX:vector  ETV
attr source  posX
attr title  "Position X, vector"
vector 33  WirelessNetworkMU.node[7].net  coordenadaY:vector  ETV
attr source  posY
attr title  "Position Y, vector"
vector 36  WirelessNetworkMU.node[8].net  coordenadaX:vector  ETV
attr source  posX
attr title  "Position X, vector"
vector 37  WirelessNetworkMU.node[8].net  coordenadaY:vector  ETV
attr source  posY
attr title  "Position Y, vector"
vector 40  WirelessNetworkMU.node[9].net  coordenadaX:vector  ETV
attr source  posX
attr title  "Position X, vector"
vector 41  WirelessNetworkMU.node[9].net  coordenadaY:vector  ETV
attr source  posY
attr title  "Position Y, vector"
vector 44  WirelessNetworkMU.node[10].net  coordenadaX:vector  ETV
attr source  posX
attr title  "Position X, vector"
vector 45  WirelessNetworkMU.node[10].net  coordenadaY:vector  ETV
attr source  posY
attr title  "Position Y, vector"
vector 48  WirelessNetworkMU.node[11].net  coordenadaX:vector  ETV
attr source  posX
attr title  "Position X, vector"
vector 49  WirelessNetworkMU.node[11].net  coordenadaY:vector  ETV
attr source  posY
attr title  "Position Y, vector"
vector 52  WirelessNetworkMU.node[12].net  coordenadaX:vector  ETV
attr source  posX
attr title  "Position X, vector"
vector 53  WirelessNetworkMU.node[12].net  coordenadaY:vector  ETV
attr source  posY
attr title  "Position Y, vector"
vector 56  WirelessNetworkMU.node[13].net  coordenadaX:vector  ETV
attr source  posX
attr title  "Position X, vector"
vector 57  WirelessNetworkMU.node[13].net  coordenadaY:vector  ETV
attr source  posY
attr title  "Position Y, vector"
vector 60  WirelessNetworkMU.node[14].net  coordenadaX:vector  ETV
attr source  posX
attr title  "Position X, vector"
vector 61  WirelessNetworkMU.node[14].net  coordenadaY:vector  ETV
attr source  posY
attr title  "Position Y, vector"
vector 64  WirelessNetworkMU.node[15].net  coordenadaX:vector  ETV
attr source  posX
attr title  "Position X, vector"
vector 65  WirelessNetworkMU.node[15].net  coordenadaY:vector  ETV
attr source  posY
attr title  "Position Y, vector"
vector 68  WirelessNetworkMU.node[16].net  coordenadaX:vector  ETV
attr source  posX
attr title  "Position X, vector"
vector 69  WirelessNetworkMU.node[16].net  coordenadaY:vector  ETV
attr source  posY
attr title  "Position Y, vector"
vector 72  WirelessNetworkMU.node[17].net  coordenadaX:vector  ETV
attr source  posX
attr title  "Position X, vector"
vector 73  WirelessNetworkMU.node[17].net  coordenadaY:vector  ETV
attr source  posY
attr title  "Position Y, vector"
vector 76  WirelessNetworkMU.node[18].net  coordenadaX:vector  ETV
attr source  posX
attr title  "Position X, vector"
vector 77  WirelessNetworkMU.node[18].net  coordenadaY:vector  ETV
attr source  posY
attr title  "Position Y, vector"
vector 80  WirelessNetworkMU.node[19].net  coordenadaX:vector  ETV
attr source  posX
attr title  "Position X, vector"
vector 81  WirelessNetworkMU.node[19].net  coordenadaY:vector  ETV
attr source  posY
attr title  "Position Y, vector"
vector 86  WirelessNetworkMU.colectores[0].netColector  coordenadaXCollector:vector  ETV
attr source  posXCollector
attr title  "Position X Collector, vector"
vector 87  WirelessNetworkMU.colectores[0].netColector  coordenadaYCollector:vector  ETV
attr source  posYCollector
attr title  "Position Y Collector, vector"
vector 84  WirelessNetworkMU.colectores[0].netColector  NodosQueEnviaronAMR:vector  ETV
attr source  medidorFuenteAMR
attr title  "Nodos Fuente AMR:, vector"
vector 85  WirelessNetworkMU.colectores[0].netColector  NodosQueEnviaronWAM:vector  ETV
attr source  medidorFuenteWAM
attr title  "Nodos Fuente WAM:, vector"
4	0	0	15.366778064519
5	0	0	16.599649258889
8	0	0	20.025302219205
9	0	0	23.639440834522
12	0	0	16.877374370582
13	0	0	24.022477355786
16	0	0	15.25672896672
17	0	0	23.723048643209
20	0	0	11.862334310077
21	0	0	17.459783499129
24	0	0	18.085035222583
25	0	0	10.762687830254
28	0	0	12.252441879362
29	0	0	8.3309689471498
32	0	0	24.969644049183
33	0	0	1.5879633203149
36	0	0	26.98255739361
37	0	0	7.6343762464821
40	0	0	10.736362596974
41	0	0	13.37462312635
44	0	0	22.168300935999
45	0	0	22.740724341013
48	0	0	14.809057802893
49	0	0	13.439360799268
52	0	0	15.905247785151
53	0	0	10.997974208556
56	0	0	25.916705730371
57	0	0	23.410205527209
60	0	0	1.9890096439049
61	0	0	9.447092525661
64	0	0	2.4396203150973
65	0	0	18.148812543601
68	0	0	0.56611517537385
69	0	0	10.310763046145
72	0	0	23.31335559953
73	0	0	26.800344320945
76	0	0	21.788389192894
77	0	0	3.9298217678443
80	0	0	24.360340067185
81	0	0	24.362443029881
84	86	1.184657716405	17
84	4508	2.087699367302	7
84	9771	2.30668910168	9
84	62809	3.751516156477	13
84	82622	4.257520656931	23
84	120971	5.20182380766	5
84	187030	6.723032892523	20
84	200316	7.041340997612	11
84	247094	8.061373637409	14
84	15103046	307.69556394237	22
84	15123467	308.120655997612	11
84	15182068	309.333521174849	8
84	15327628	312.317820637047	10
85	1180	1.959092997612	11
85	2278	1.999412997612	11
85	3376	2.039732997612	11
85	4710	2.095732997612	11
85	6712	2.198875497612	11
85	7606	2.229288098471	16
85	8783	2.269377997612	11
85	9305	2.283959598471	16
85	10224	2.329706997612	11
85	11163	2.386751497612	11
85	11401	2.391648598471	16
85	11646	2.398438359801	18
85	14130	2.464711098471	16
85	14795	2.481573997612	11
85	16170	2.522700859801	18
85	16380	2.528813598471	16
85	16870	2.545827497612	11
85	19122	2.608596098471	16
85	20088	2.634247859801	18
85	20958	2.658249997612	11
85	21925	2.685818598471	16
85	22618	2.705305859801	18
85	23326	2.727472497612	11
85	24529	2.761315656477	13
85	25685	2.790208359801	18
85	25935	2.795960156477	13
85	26144	2.803499497612	11
85	26377	2.808481098471	16
85	28745	2.871337359801	18
85	28964	2.877383598471	16
85	29408	2.889192997612	11
85	30606	2.917662656477	13
85	31307	2.938255497612	11
85	31562	2.943910859801	18
85	32301	2.964477752383	15
85	32801	2.979801598471	16
85	33393	2.994800656477	13
85	34116	3.012155359801	18
85	34322	3.017077997612	11
85	34860	3.031695752383	15
85	35547	3.047659598471	16
85	35842	3.056079859801	18
85	36076	3.062489656477	13
85	36621	3.078366997612	11
85	37623	3.101621554503	19
85	37846	3.108024752383	15
85	38080	3.114388598471	16
85	38618	3.129848859801	18
85	39827	3.159495997612	11
85	40315	3.170910554503	19
85	40541	3.176916656477	13
85	41422	3.198582359801	18
85	41654	3.204275054503	19
85	42575	3.227402752383	15
85	43051	3.237706859801	18
85	43278	3.242685656477	13
85	43729	3.254246598471	16
85	44502	3.274288554503	19
85	45447	3.298478497612	11
85	46188	3.316767252383	15
85	46459	3.321817554503	19
85	47259	3.340124859801	18
85	47562	3.351460098471	16
85	48280	3.369037156477	13
85	48503	3.374771752383	15
85	48723	3.380416497612	11
85	49811	3.408909098471	16
85	51459	3.457290656477	13
85	51695	3.463040054503	19
85	52130	3.472998997612	11
85	52395	3.478298359801	18
85	53075	3.495562598471	16
85	53525	3.507003497612	11
85	54032	3.519944156477	13
85	54254	3.525727098471	16
85	54776	3.540634252383	15
85	55264	3.555133554503	19
85	55495	3.560348656477	13
85	56231	3.576791859801	18
85	57187	3.600591554503	19
85	57404	3.607091598471	16
85	57886	3.617196359801	18
85	58606	3.635661497612	11
85	58852	3.640896752383	15
85	59374	3.652685054503	19
85	59601	3.657882156477	13
85	60114	3.671381252383	15
85	60616	3.684790497612	11
85	61544	3.708616098471	16
85	62323	3.730258859801	18
85	62546	3.735870252383	15
85	63029	3.757043997612	11
85	64000	3.781680656477	13
85	64216	3.786780598471	16
85	64933	3.805799252383	15
85	65182	3.812112359801	18
85	65669	3.822385098471	16
85	66682	3.847301997612	11
85	67172	3.857756554503	19
85	67683	3.871076859801	18
85	68899	3.903703156477	13
85	69358	3.915203098471	16
85	69921	3.930519997612	11
85	70558	3.948450359801	18
85	71253	3.963661752383	15
85	71500	3.968814554503	19
85	72166	3.986048997612	11
85	72423	3.993216598471	16
85	72692	3.998272156477	13
85	73222	4.008953571319	17
85	74602	4.045832859801	18
85	74834	4.050903554503	19
85	75346	4.065641156477	13
85	75581	4.070631497612	11
85	76299	4.086910098471	16
85	77173	4.112530156477	13
85	77419	4.117620571319	17
85	78203	4.135215359801	18
85	78442	4.140992554503	19
85	78659	4.146484252383	15
85	79368	4.162834598471	16
85	80190	4.188117054503	19
85	80877	4.205453997612	11
85	81129	4.210383656477	13
85	81826	4.229008098471	16
85	82297	4.239625071319	17
85	83113	4.268135054503	19
85	83648	4.281828156477	13
85	83942	4.290584359801	18
85	84163	4.295942252383	15
85	84611	4.306591997612	11
85	85173	4.320379554503	19
85	85403	4.325752656477	13
85	85678	4.334052598471	16
85	86388	4.350106752383	15
85	87126	4.367089997612	11
85	88422	4.397602054503	19
85	89044	4.415555752383	15
85	89345	4.424193359801	18
85	89615	4.432687571319	17
85	89933	4.441375156477	13
85	90684	4.460612071319	17
85	90965	4.466806554503	19
85	91175	4.471747997612	11
85	91933	4.487944156477	13
85	92179	4.493515098471	16
85	92679	4.504277859801	18
85	93153	4.514392497612	11
85	93440	4.519388656477	13
85	93921	4.530399598471	16
85	94437	4.545836997612	11
85	94701	4.551304554503	19
85	95399	4.567190071319	17
85	95962	4.581761497612	11
85	96781	4.600853752383	15
85	98785	4.650502098471	16
85	99024	4.656702752383	15
85	99276	4.661904859801	18
85	99510	4.667482554503	19
85	99729	4.673852571319	17
85	99987	4.678851156477	13
85	100228	4.684325392523	20
85	101022	4.707857071319	17
85	101276	4.713107252383	15
85	101824	4.727993859801	18
85	102384	4.743235598471	16
85	102724	4.751576054503	19
85	102963	4.756581571319	17
85	103607	4.772224656477	13
85	103844	4.778169892523	20
85	105130	4.811280752383	15
85	105354	4.816506071319	17
85	105663	4.825383997612	11
85	106932	4.856469554503	19
85	107151	4.861653598471	16
85	107407	4.868107892523	20
85	107650	4.874407156477	13
85	107918	4.880096359801	18
85	108441	4.891214252383	15
85	108712	4.896874054503	19
85	108956	4.902698098471	16
85	109425	4.913872997612	11
85	109686	4.919138752383	15
85	109978	4.927742598471	16
85	110224	4.932835071319	17
85	111075	4.955703252383	15
85	111341	4.961683054503	19
85	111725	4.972391598471	16
85	111978	4.978034359801	18
85	112423	4.989241997612	11
85	112701	4.994340656477	13
85	113555	5.017127554503	19
85	114013	5.028192252383	15
85	114268	5.033798859801	18
85	114499	5.039244071319	17
85	115029	5.050274156477	13
85	115254	5.055525098471	16
85	115821	5.07115444237	22
85	116086	5.077090997612	11
85	117175	5.101810392523	20
85	117951	5.120841252383	15
85	118230	5.129653071319	17
85	118499	5.135292054503	19
85	118814	5.144134892523	20
85	119089	5.150583098471	16
85	119591	5.16053694237	22
85	120147	5.172127656477	13
85	120379	5.177650252383	15
85	120659	5.18622144237	22
85	121222	5.208052156477	13
85	121450	5.213707598471	16
85	121694	5.219334752383	15
85	121981	5.228788997612	11
85	122590	5.246151071319	17
85	122858	5.251705554503	19
85	123278	5.26182594237	22
85	123995	5.277341156477	13
85	124820	5.297988252383	15
85	125077	5.303074554503	19
85	125330	5.307992892523	20
85	125602	5.314592098471	16
85	125891	5.32087494237	22
85	126231	5.329030156477	13
85	126972	5.345366392523	20
85	127191	5.351528323396	12
85	127828	5.364954656477	13
85	128310	5.376006997612	11
85	128560	5.381001098471	16
85	128902	5.389270359801	18
85	129530	5.403775392523	20
85	129976	5.414568323396	12
85	130473	5.426413571319	17
85	130984	5.43743944237	22
85	131514	5.448372554503	19
85	132015	5.461692823396	12
85	132288	5.467690752383	15
85	132536	5.472664997612	11
85	132818	5.477979098471	16
85	133131	5.487363656477	13
85	133716	5.500883859801	18
85	134018	5.510018071319	17
85	134369	5.518099892523	20
85	134906	5.531859752383	15
85	135138	5.53707444237	22
85	135836	5.553942571319	17
85	136968	5.58204344237	22
85	137244	5.587470859801	18
85	137470	5.594433997612	11
85	137725	5.599428098471	16
85	138714	5.621221823396	12
85	138988	5.626595359801	18
85	139226	5.631717752383	15
85	139455	5.636671571319	17
85	140774	5.666430656477	13
85	141018	5.67181244237	22
85	141288	5.678122997612	11
85	141565	5.683035054503	19
85	141810	5.688104392523	20
85	143932	5.733493359801	18
85	144142	5.738830823396	12
85	144423	5.743971252383	15
85	144745	5.752301866862	5
85	145011	5.757208554503	19
85	145739	5.772937859801	18
85	146568	5.796220997612	11
85	147138	5.809015752383	15
85	147383	5.813964323396	12
85	148075	5.831297554503	19
85	148628	5.842004366862	5
85	149251	5.86015944237	22
85	149503	5.865812586256	9
85	149761	5.871180252383	15
85	150689	5.895418571319	17
85	151221	5.906042392523	20
85	152322	5.935264752383	15
85	152623	5.943505497612	11
85	152956	5.952055892523	20
85	153618	5.966461586256	9
85	153913	5.97456844237	22
85	154194	5.980469252383	15
85	154486	5.985808656477	13
85	155876	6.02009294237	22
85	156480	6.033824892523	20
85	157009	6.043560054503	19
85	157351	6.051995823396	12
85	157907	6.062457656477	13
85	158145	6.068179598471	16
85	158387	6.073443497612	11
85	158726	6.083122752383	15
85	158980	6.08850644237	22
85	159856	6.111098054503	19
85	160131	6.116789392523	20
85	160422	6.122009359801	18
85	160964	6.137371752383	15
85	161191	6.142960323396	12
85	161755	6.153186656477	13
85	161988	6.15835094237	22
85	162242	6.163832071319	17
85	162491	6.169612497612	11
85	162812	6.178808586256	9
85	163118	6.184813859801	18
85	163436	6.193249366862	5
85	164305	6.215693086256	9
85	164834	6.225995656477	13
85	165112	6.231633098471	16
85	165385	6.236973823396	12
85	165700	6.242080554503	19
85	167034	6.275557598471	16
85	167312	6.280905997612	11
85	167607	6.28628444237	22
85	167885	6.291225252383	15
85	168133	6.296427359801	18
85	168752	6.311774054503	19
85	168969	6.317058323396	12
85	169486	6.327162098471	16
85	169733	6.332830497612	11
85	170941	6.363358392523	20
85	171726	6.382507323396	12
85	172024	6.388535598471	16
85	172824	6.404034252383	15
85	173076	6.409243997612	11
85	173589	6.419937586256	9
85	173845	6.424947366862	5
85	174159	6.433100098471	16
85	174547	6.441676571319	17
85	174843	6.447472054503	19
85	175151	6.455862086256	9
85	175739	6.469398752383	15
85	176325	6.483796323396	12
85	176665	6.492116359801	18
85	177020	6.500505392523	20
85	177335	6.508746586256	9
85	177604	6.514221997612	11
85	177954	6.522452252383	15
85	178192	6.527521071319	17
85	178531	6.535725554503	19
85	178758	6.54142694237	22
85	178999	6.547240823396	12
85	179344	6.555560859801	18
85	179641	6.560749892523	20
85	180074	6.570250071319	17
85	180354	6.575170054503	19
85	180856	6.585311086256	9
85	181090	6.590230997612	11
85	181711	6.603951656477	13
85	182010	6.608987174849	8
85	182264	6.61432044237	22
85	182600	6.622558098471	16
85	182945	6.630845323396	12
85	183478	6.641279997612	11
85	184085	6.654280086256	9
85	184430	6.662511674849	8
85	185040	6.676203392523	20
85	185312	6.681274752383	15
85	185686	6.689489823396	12
85	185978	6.694663571319	17
85	186495	6.70504944237	22
85	187328	6.732402598471	16
85	187972	6.755814323396	12
85	188348	6.764303359801	18
85	188774	6.782192571319	17
85	189040	6.787898823396	12
85	189327	6.792803752383	15
85	189789	6.802467859801	18
85	190031	6.807405156477	13
85	190319	6.816783323396	12
85	190617	6.821823554503	19
85	190884	6.827458866862	5
85	191132	6.832517071319	17
85	191708	6.846737997612	11
85	191959	6.85162744237	22
85	193093	6.878216392523	20
85	193825	6.895001571319	17
85	194385	6.908666997612	11
85	194728	6.916876859801	18
85	195729	6.936888252383	15
85	196014	6.942705392523	20
85	196340	6.951371695005	23
85	196639	6.956336098471	16
85	197025	6.964613586256	9
85	197607	6.978836866862	5
85	197846	6.98395644237	22
85	198121	6.989672156477	13
85	198376	6.994805859801	18
85	198649	6.999940598471	16
85	198916	7.004930571319	17
85	199172	7.010100695005	23
85	199990	7.026472174849	8
85	200595	7.047065098471	16
85	201149	7.057916656477	13
85	201713	7.07756544237	22
85	202044	7.086123586256	9
85	202504	7.095623859801	18
85	202755	7.100695071319	17
85	203029	7.105697252383	15
85	203312	7.110874392523	20
85	203932	7.124425195005	23
85	204258	7.132645656477	13
85	205117	7.151167598471	16
85	205377	7.156341752383	15
85	206063	7.171134997612	11
85	206627	7.181163586256	9
85	206913	7.186725674849	8
85	207210	7.195210323396	12
85	207763	7.207779156477	13
85	208107	7.216586252383	15
85	208349	7.221908571319	17
85	209034	7.236329353161	6
85	209592	7.249019366862	5
85	209878	7.254010174849	8
85	210136	7.259398695005	23
85	210446	7.264517359801	18
85	211312	7.282355252383	15
85	211565	7.287308156477	13
85	212692	7.321042071319	17
85	213332	7.337799752383	15
85	213577	7.342948366862	5
85	214214	7.356344054503	19
85	214465	7.361446571319	17
85	214870	7.370176892523	20
85	215874	7.392018353161	6
85	216129	7.39790344237	22
85	216431	7.403317174849	8
85	216959	7.416837323396	12
85	217232	7.421862853161	6
85	217568	7.430935359801	18
85	217786	7.436028497612	11
85	218149	7.444735098471	16
85	218415	7.449801674849	8
85	218671	7.454797366862	5
85	219230	7.46486794237	22
85	220340	7.488701586256	9
85	220620	7.493808752383	15
85	221569	7.51551244237	22
85	221863	7.521280353161	6
85	222099	7.526465695005	23
85	222656	7.539806156477	13
85	223214	7.553552997612	11
85	223527	7.558484853161	6
85	224087	7.571653252383	15
85	224408	7.580282098471	16
85	225500	7.604441823396	12
85	225787	7.609488392523	20
85	226040	7.614400353161	6
85	226340	7.622606497612	11
85	226696	7.631442359801	18
85	226957	7.636446174849	8
85	227214	7.641380071319	17
85	227493	7.646508137409	14
85	228002	7.656686323396	12
85	228294	7.661966598471	16
85	229412	7.684828866862	5
85	229709	7.689820054503	19
85	230348	7.704057392523	20
85	230582	7.708992637409	14
85	230871	7.714255859801	18
85	231136	7.719579656477	13
85	231399	7.724479195005	23
85	232063	7.738295598471	16
85	233157	7.763200353161	6
85	233449	7.768740359801	18
85	233705	7.773979674849	8
85	233939	7.779704571319	17
85	234236	7.785641637409	14
85	234551	7.791833554503	19
85	234932	7.800719586256	9
85	235211	7.805675752383	15
85	235745	7.819368195005	23
85	236096	7.827499823396	12
85	237021	7.84632594237	22
85	237837	7.864237656477	13
85	238442	7.877358054503	19
85	238705	7.882425137047	10
85	239291	7.895327071319	17
85	239908	7.909082366862	5
85	240251	7.916429359801	18
85	240779	7.926068997612	11
85	241143	7.934333853161	6
85	241432	7.939448586256	9
85	241730	7.944949098471	16
85	242297	7.957908823396	12
85	242848	7.968101695005	23
85	243372	7.977687054503	19
85	243865	7.988637997612	11
85	244258	7.997323137047	10
85	244655	8.005499637409	14
85	245336	8.022086997612	11
85	245910	8.031862917759	7
85	246203	8.036802174849	8
85	246501	8.041802859801	18
85	246758	8.046717823396	12
85	247451	8.069846674849	8
85	248033	8.082580156477	13
85	248734	8.106977586256	9
85	249453	8.130002323396	12
85	249724	8.135124752383	15
85	251002	8.168270695005	23
85	251294	8.173218417759	7
85	251571	8.179415866862	5
85	252764	8.218255823396	12
85	253377	8.231718156477	13
85	253734	8.240171174849	8
85	253974	8.245296098471	16
85	254285	8.250737892523	20
85	254848	8.260954071319	17
85	255751	8.279159695005	23
85	256102	8.287629323396	12
85	256517	8.296064866862	5
85	256883	8.304589637047	10
85	257227	8.313165353161	6
85	257732	8.322265098471	16
85	258355	8.335683071319	17
85	258702	8.343942392523	20
85	259533	8.360330359801	18
85	259900	8.369554054503	19
85	260179	8.374680137409	14
85	260485	8.379942752383	15
85	261550	8.402358637047	10
85	261817	8.407265156477	13
85	262257	8.41773094237	22
85	262598	8.425963586256	9
85	262875	8.430892071319	17
85	263213	8.436035892523	20
85	263754	8.445643137047	10
85	264050	8.450683054503	19
85	264368	8.459189656477	13
85	264752	8.46749994237	22
85	265112	8.475722823396	12
85	265495	8.483807637047	10
85	265851	8.492022917759	7
85	266207	8.500289137409	14
85	266974	8.515228359801	18
85	267255	8.520280392523	20
85	267854	8.533427853161	6
85	268206	8.541982195005	23
85	268487	8.54734894237	22
85	268886	8.555556252383	15
85	269620	8.572466695005	23
85	269914	8.578056637047	10
85	270239	8.586924892523	20
85	270613	8.595105554503	19
85	270899	8.600167366862	5
85	271245	8.608445814153	4
85	272040	8.626125252383	15
85	272318	8.631064997612	11
85	272628	8.636150054503	19
85	272909	8.641211866862	5
85	273430	8.651816598471	16
85	273968	8.662301137047	10
85	274444	8.671785571319	17
85	275121	8.685811823396	12
85	275505	8.694509497612	11
85	276091	8.704336366862	5
85	276592	8.714294252383	15
85	277128	8.724458392523	20
85	277396	8.729435695005	23
85	277802	8.737608054503	19
85	278045	8.742820866862	5
85	278303	8.747978752383	15
85	279229	8.76633144237	22
85	279767	8.776702892523	20
85	280108	8.785841353161	6
85	280406	8.790766359801	18
85	280975	8.801554571319	17
85	281327	8.809800917759	7
85	281566	8.815018137409	14
85	281818	8.820080195005	23
85	282405	8.832870098471	16
85	282696	8.837890859801	18
85	283091	8.846227392523	20
85	283649	8.856994366862	5
85	284019	8.865221554503	19
85	284839	8.882205417759	7
85	285226	8.890471892523	20
85	286326	8.914328137047	10
85	286591	8.919422637409	14
85	286882	8.924422674849	8
85	287432	8.936578195005	23
85	287717	8.942026586256	9
85	288328	8.955569917759	7
85	288689	8.963600892523	20
85	289518	8.979310554503	19
85	289874	8.987561314153	4
85	290346	8.996634323396	12
85	290647	9.001631086256	9
85	292029	9.031084054503	19
85	293170	9.056738892523	20
85	293490	9.065605752383	15
85	294384	9.082901637047	10
85	294717	9.091197859801	18
85	295234	9.101734814153	4
85	295530	9.106819353161	6
85	296130	9.117998823396	12
85	296438	9.123101366862	5
85	296733	9.128211997612	11
85	297026	9.133226137047	10
85	297756	9.150162359801	18
85	297987	9.15523394237	22
85	298657	9.169625656477	13
85	299208	9.179523323396	12
85	299499	9.184595137047	10
85	300001	9.194216497612	11
85	300327	9.199102054503	19
85	300689	9.207611359801	18
85	300981	9.213903814153	4
85	301447	9.223374137409	14
85	301804	9.231826554503	19
85	302141	9.240039637047	10
85	302733	9.253180997612	11
85	302998	9.258412323396	12
85	303868	9.276831917759	7
85	304460	9.289509195005	23
85	304781	9.294415859801	18
85	305133	9.30292294237	22
85	305521	9.311035554503	19
85	306032	9.320436892523	20
85	306684	9.334298086256	9
85	307078	9.342831674849	8
85	307366	9.347834497612	11
85	308207	9.36461644237	22
85	308598	9.373085892523	20
85	309219	9.386743137409	14
85	309473	9.392190323396	12
85	309770	9.397084289601	21
85	310092	9.403193695005	23
85	310424	9.408428252383	15
85	310699	9.413555098471	16
85	311709	9.436032853161	6
85	312058	9.444142586256	9
85	312615	9.456715071319	17
85	312973	9.464774892523	20
85	313709	9.481358997612	11
85	313991	9.486523823396	12
85	314265	9.491550789601	21
85	314611	9.500359598471	16
85	314984	9.508639571319	17
85	315645	9.522289917759	7
85	315890	9.527248323396	12
85	317593	9.565208366862	5
85	317942	9.573803656477	13
85	318229	9.578774174849	8
85	318933	9.591964098471	16
85	319341	9.600387917759	7
85	320244	9.627454086256	9
85	320885	9.640163497612	11
85	321188	9.645161752383	15
85	322166	9.666608598471	16
85	322712	9.676657571319	17
85	323037	9.681846314153	4
85	323372	9.69007444237	22
85	323651	9.694977366862	5
85	324171	9.705371789601	21
85	324509	9.714182071319	17
85	324907	9.722472174849	8
85	325267	9.731021823396	12
85	325556	9.735983637409	14
85	325974	9.744210853161	6
85	326320	9.752311137047	10
85	326607	9.757436674849	8
85	326915	9.762476917759	7
85	327674	9.778016997612	11
85	328024	9.786217156477	13
85	328289	9.791146366862	5
85	329399	9.816361314153	4
85	329755	9.824821497612	11
85	330172	9.833736359801	18
85	330454	9.838801174849	8
85	330890	9.848679866862	5
85	331515	9.862705359801	18
85	331989	9.872144695005	23
85	332278	9.877280137047	10
85	332618	9.885584252383	15
85	332969	9.893622554503	19
85	333245	9.898949859801	18
85	333531	9.903845674849	8
85	334048	9.913147586256	9
85	334357	9.918786598471	16
85	334646	9.924153353161	6
85	335230	9.937321314153	4
85	336082	9.952068137409	14
85	337506	9.978213366862	5
85	338341	9.993214917759	7
85	338640	9.998124571319	17
85	339289	10.011279656477	13
85	339529	10.016205586256	9
85	340531	10.037591098471	16
85	341657	10.058428892523	20
85	342308	10.07155044237	22
85	342741	10.079755323396	12
85	343041	10.084939086256	9
85	343332	10.089979314153	4
85	343651	10.095005054503	19
85	343934	10.100112917759	7
85	344307	10.108386866862	5
85	344814	10.118834997612	11
85	345247	10.127072674849	8
85	345520	10.132018137047	10
85	345826	10.140481637409	14
85	346535	10.153208656477	13
85	346843	10.158421359801	18
85	347088	10.164071571319	17
85	347442	10.172151366862	5
85	347932	10.182038789601	21
85	348235	10.187050637409	14
85	348898	10.201672586256	9
85	350185	10.224667137047	10
85	350595	10.233178554503	19
85	350868	10.238411353161	6
85	351134	10.243382156477	13
85	351743	10.257137823396	12
85	352088	10.265407789601	21
85	353078	10.286824137409	14
85	353385	10.291823054503	19
85	353677	10.296836137047	10
85	354151	10.306010586256	9
85	354531	10.314627554503	19
85	354993	10.324102323396	12
85	355293	10.329129098471	16
85	355578	10.334089366862	5
85	356991	10.362372997612	11
85	357308	10.36739944237	22
85	358250	10.385150359801	18
85	358767	10.394269252383	15
85	359085	10.399606314153	4
85	359347	10.404517637409	14
85	359829	10.413520571319	17
85	360248	10.421714859801	18
85	360546	10.426668586256	9
85	361072	10.435850814153	4
85	361483	10.444360156477	13
85	361723	10.449445071319	17
85	362016	10.454781289601	21
85	363619	10.485490674849	8
85	363905	10.490379917759	7
85	364238	10.498747098471	16
85	364858	10.512706497612	11
85	365219	10.520762137409	14
85	365489	10.525990289601	21
85	365836	10.534203859801	18
85	366327	10.54446194237	22
85	366725	10.552823071319	17
85	367042	10.557815892523	20
85	367288	10.563194789601	21
85	368018	10.578049637047	10
85	368310	10.583664174849	8
85	368984	10.596117586256	9
85	369274	10.601158252383	15
85	369553	10.606079997612	11
85	369843	10.611009866862	5
85	370413	10.621344417759	7
85	370696	10.626241054503	19
85	371068	10.634532859801	18
85	371350	10.640068674849	8
85	372406	10.66294644237	22
85	373161	10.676847252383	15
85	374430	10.701442174849	8
85	374951	10.711640323396	12
85	375387	10.720399289601	21
85	375674	10.725321071319	17
85	376149	10.734611086256	9
85	376443	10.74023544237	22
85	377085	10.753512366862	5
85	377493	10.761673417759	7
85	378119	10.775584637409	14
85	378377	10.78063994237	22
85	379400	10.803426359801	18
85	380736	10.830171892523	20
85	381119	10.838785252383	15
85	381626	10.848684823396	12
85	382410	10.863930137047	10
85	382738	10.872411637409	14
85	383353	10.882579054503	19
85	383615	10.887851174849	8
85	383893	10.892796866862	5
85	384397	10.902576392523	20
85	384671	10.907503571319	17
85	385340	10.921439859801	18
85	385597	10.926362314153	4
85	385899	10.932668054503	19
85	386149	10.937684497612	11
85	387120	10.95840894237	22
85	387795	10.974695695005	23
85	388600	10.992313586256	9
85	389198	11.005134637047	10
85	389471	11.010024674849	8
85	389718	11.015131417759	7
85	390058	11.023246054503	19
85	390409	11.031758086256	9
85	390967	11.042157071319	17
85	391334	11.050568859801	18