version 2
run BusPLC20Meters-2-20141127-16:00:27-5068
attr configname BusPLC20Meters
attr datetime 20141127-16:00:27
attr experiment BusPLC20Meters
attr inifile pruebawirelessmu.ini
attr iterationvars "$0=300, $1=0.04, $2=900, $3=0.04"
attr iterationvars2 "$0=300, $1=0.04, $2=900, $3=0.04, $repetition=2"
attr measurement "$0=300, $1=0.04, $2=900, $3=0.04"
attr network WirelessNetworkMU
attr processid 5068
attr repetition 2
attr replication #2
attr resultdir results
attr runnumber 2
attr seedset 2

vector 4  WirelessNetworkMU.node[0].net  coordenadaX:vector  ETV
attr source  posX
attr title  "Position X, vector"
vector 5  WirelessNetworkMU.node[0].net  coordenadaY:vector  ETV
attr source  posY
attr title  "Position Y, vector"
vector 8  WirelessNetworkMU.node[1].net  coordenadaX:vector  ETV
attr source  posX
attr title  "Position X, vector"
vector 9  WirelessNetworkMU.node[1].net  coordenadaY:vector  ETV
attr source  posY
attr title  "Position Y, vector"
vector 12  WirelessNetworkMU.node[2].net  coordenadaX:vector  ETV
attr source  posX
attr title  "Position X, vector"
vector 13  WirelessNetworkMU.node[2].net  coordenadaY:vector  ETV
attr source  posY
attr title  "Position Y, vector"
vector 16  WirelessNetworkMU.node[3].net  coordenadaX:vector  ETV
attr source  posX
attr title  "Position X, vector"
vector 17  WirelessNetworkMU.node[3].net  coordenadaY:vector  ETV
attr source  posY
attr title  "Position Y, vector"
vector 20  WirelessNetworkMU.node[4].net  coordenadaX:vector  ETV
attr source  posX
attr title  "Position X, vector"
vector 21  WirelessNetworkMU.node[4].net  coordenadaY:vector  ETV
attr source  posY
attr title  "Position Y, vector"
vector 24  WirelessNetworkMU.node[5].net  coordenadaX:vector  ETV
attr source  posX
attr title  "Position X, vector"
vector 25  WirelessNetworkMU.node[5].net  coordenadaY:vector  ETV
attr source  posY
attr title  "Position Y, vector"
vector 28  WirelessNetworkMU.node[6].net  coordenadaX:vector  ETV
attr source  posX
attr title  "Position X, vector"
vector 29  WirelessNetworkMU.node[6].net  coordenadaY:vector  ETV
attr source  posY
attr title  "Position Y, vector"
vector 32  WirelessNetworkMU.node[7].net  coordenadaX:vector  ETV
attr source  posX
attr title  "Position X, vector"
vector 33  WirelessNetworkMU.node[7].net  coordenadaY:vector  ETV
attr source  posY
attr title  "Position Y, vector"
vector 36  WirelessNetworkMU.node[8].net  coordenadaX:vector  ETV
attr source  posX
attr title  "Position X, vector"
vector 37  WirelessNetworkMU.node[8].net  coordenadaY:vector  ETV
attr source  posY
attr title  "Position Y, vector"
vector 40  WirelessNetworkMU.node[9].net  coordenadaX:vector  ETV
attr source  posX
attr title  "Position X, vector"
vector 41  WirelessNetworkMU.node[9].net  coordenadaY:vector  ETV
attr source  posY
attr title  "Position Y, vector"
vector 44  WirelessNetworkMU.node[10].net  coordenadaX:vector  ETV
attr source  posX
attr title  "Position X, vector"
vector 45  WirelessNetworkMU.node[10].net  coordenadaY:vector  ETV
attr source  posY
attr title  "Position Y, vector"
vector 48  WirelessNetworkMU.node[11].net  coordenadaX:vector  ETV
attr source  posX
attr title  "Position X, vector"
vector 49  WirelessNetworkMU.node[11].net  coordenadaY:vector  ETV
attr source  posY
attr title  "Position Y, vector"
vector 52  WirelessNetworkMU.node[12].net  coordenadaX:vector  ETV
attr source  posX
attr title  "Position X, vector"
vector 53  WirelessNetworkMU.node[12].net  coordenadaY:vector  ETV
attr source  posY
attr title  "Position Y, vector"
vector 56  WirelessNetworkMU.node[13].net  coordenadaX:vector  ETV
attr source  posX
attr title  "Position X, vector"
vector 57  WirelessNetworkMU.node[13].net  coordenadaY:vector  ETV
attr source  posY
attr title  "Position Y, vector"
vector 60  WirelessNetworkMU.node[14].net  coordenadaX:vector  ETV
attr source  posX
attr title  "Position X, vector"
vector 61  WirelessNetworkMU.node[14].net  coordenadaY:vector  ETV
attr source  posY
attr title  "Position Y, vector"
vector 64  WirelessNetworkMU.node[15].net  coordenadaX:vector  ETV
attr source  posX
attr title  "Position X, vector"
vector 65  WirelessNetworkMU.node[15].net  coordenadaY:vector  ETV
attr source  posY
attr title  "Position Y, vector"
vector 68  WirelessNetworkMU.node[16].net  coordenadaX:vector  ETV
attr source  posX
attr title  "Position X, vector"
vector 69  WirelessNetworkMU.node[16].net  coordenadaY:vector  ETV
attr source  posY
attr title  "Position Y, vector"
vector 72  WirelessNetworkMU.node[17].net  coordenadaX:vector  ETV
attr source  posX
attr title  "Position X, vector"
vector 73  WirelessNetworkMU.node[17].net  coordenadaY:vector  ETV
attr source  posY
attr title  "Position Y, vector"
vector 76  WirelessNetworkMU.node[18].net  coordenadaX:vector  ETV
attr source  posX
attr title  "Position X, vector"
vector 77  WirelessNetworkMU.node[18].net  coordenadaY:vector  ETV
attr source  posY
attr title  "Position Y, vector"
vector 80  WirelessNetworkMU.node[19].net  coordenadaX:vector  ETV
attr source  posX
attr title  "Position X, vector"
vector 81  WirelessNetworkMU.node[19].net  coordenadaY:vector  ETV
attr source  posY
attr title  "Position Y, vector"
vector 86  WirelessNetworkMU.colectores[0].netColector  coordenadaXCollector:vector  ETV
attr source  posXCollector
attr title  "Position X Collector, vector"
vector 87  WirelessNetworkMU.colectores[0].netColector  coordenadaYCollector:vector  ETV
attr source  posYCollector
attr title  "Position Y Collector, vector"
vector 85  WirelessNetworkMU.colectores[0].netColector  NodosQueEnviaronWAM:vector  ETV
attr source  medidorFuenteWAM
attr title  "Nodos Fuente WAM:, vector"
4	0	0	12.207857273519
5	0	0	5.18229828123
8	0	0	0.72593438159674
9	0	0	26.083144180477
12	0	0	15.390549326316
13	0	0	26.536457103677
16	0	0	12.189027009532
17	0	0	13.572974693961
20	0	0	11.770298443735
21	0	0	8.9750202158466
24	0	0	9.2493749689311
25	0	0	4.3239469146356
28	0	0	5.7301618093625
29	0	0	19.568155300803
32	0	0	17.339587169699
33	0	0	3.358615227975
36	0	0	8.3903309637681
37	0	0	13.584925615229
40	0	0	7.4711637403816
41	0	0	17.716656457633
44	0	0	17.391747329384
45	0	0	22.910348217934
48	0	0	14.815978529863
49	0	0	19.124727861024
52	0	0	3.768238385208
53	0	0	13.959712693468
56	0	0	14.380187299103
57	0	0	16.430315410718
60	0	0	5.164316159673
61	0	0	20.153118466027
64	0	0	21.989384130575
65	0	0	7.2379462812096
68	0	0	23.911308145151
69	0	0	15.293804860674
72	0	0	13.838631531224
73	0	0	11.404619310051
76	0	0	23.703721755184
77	0	0	4.9555694656447
80	0	0	2.2300731865689
81	0	0	27.14970741421
85	78	1.592282545044	4
85	303	1.633882545044	4
85	528	1.671642545044	4
85	753	1.712602545044	4
85	978	1.752282545044	4
85	1203	1.792922545044	4
85	1428	1.832922545044	4
85	1659	1.872602545044	4
85	1878	1.878602301945	8
85	2111	1.912282545044	4
85	2330	1.917642301945	8
85	2563	1.953562545044	4
85	2782	1.959242301945	8
85	3025	1.968495201213	16
85	3240	1.992922545044	4
85	3459	1.999242301945	8
85	3702	2.007215201213	16
85	3917	2.033242545044	4
85	4136	2.037322301945	8
85	4385	2.048815201213	16
85	4596	2.055243922988	7
85	4821	2.072922545044	4
85	5040	2.078282301945	8
85	5288	2.088175201213	16
85	5498	2.091083922988	7
85	5724	2.113882545044	4
85	5942	2.117322301945	8
85	6190	2.128175201213	16
85	6400	2.132043922988	7
85	6653	2.150423792564	10
85	6850	2.154442301945	8
85	7085	2.167962545044	4
85	7342	2.171055201213	16
85	7575	2.177947922988	7
85	7827	2.188823792564	10
85	8025	2.192602545044	4
85	8244	2.198922301945	8
85	8493	2.208815201213	16
85	8704	2.215883922988	7
85	8958	2.230103792564	10
85	9153	2.234122301945	8
85	9375	2.237082545044	4
85	9622	2.248495201213	16
85	9833	2.252683922988	7
85	10085	2.269783792564	10
85	10328	2.275082301945	8
85	10551	2.279146545044	4
85	10799	2.288815201213	16
85	11009	2.292043922988	7
85	11261	2.309463792564	10
85	11459	2.312602545044	4
85	11678	2.319242301945	8
85	11926	2.327215201213	16
85	12136	2.330443922988	7
85	12389	2.349143792564	10
85	12586	2.352602545044	4
85	12805	2.357962301945	8
85	13053	2.368175201213	16
85	13263	2.371403922988	7
85	13515	2.389783792564	10
85	13757	2.394442301945	8
85	14026	2.401530545044	4
85	14271	2.407855201213	16
85	14482	2.412043922988	7
85	14736	2.429783792564	10
85	14932	2.433482301945	8
85	15160	2.444762545044	4
85	15400	2.447855201213	16
85	15611	2.452043922988	7
85	15863	2.468823792564	10
85	16060	2.471642545044	4
85	16325	2.480666301945	8
85	16572	2.486895201213	16
85	16783	2.491083922988	7
85	17041	2.510423792564	10
85	17242	2.514793840257	21
85	17460	2.517642301945	8
85	17688	2.525082545044	4
85	17929	2.528175201213	16
85	18139	2.531723922988	7
85	18392	2.549783792564	10
85	18641	2.554473840257	21
85	18863	2.559562301945	8
85	19092	2.565546545044	4
85	19335	2.571055201213	16
85	19546	2.576523922988	7
85	19803	2.590743792564	10
85	20001	2.593562545044	4
85	20223	2.596393840257	21
85	20452	2.605962301945	8
85	20683	2.611083922988	7
85	20914	2.618735201213	16
85	21163	2.630423792564	10
85	21358	2.633802301945	8
85	21587	2.638042545044	4
85	21809	2.641193840257	21
85	22058	2.648175201213	16
85	22268	2.651403922988	7
85	22485	2.65912735677	9
85	22747	2.670743792564	10
85	22945	2.674442301945	8
85	23174	2.681513840257	21
85	23405	2.686042545044	4
85	23644	2.688815201213	16
85	23857	2.691723922988	7
85	24078	2.70520735677	9
85	24330	2.709783792564	10
85	24533	2.713242545044	4
85	24761	2.719882301945	8
85	24999	2.72664735677	9
85	25283	2.731375201213	16
85	25490	2.734457840257	21
85	25716	2.738443922988	7
85	25974	2.750743792564	10
85	26171	2.754762301945	8
85	26400	2.757993840257	21
85	26623	2.76120735677	9
85	26868	2.768175201213	16
85	27122	2.775322545044	4
85	27348	2.778587922988	7
85	27600	2.789463792564	10
85	27847	2.794442301945	8
85	28076	2.798506545044	4
85	28299	2.80152735677	9
85	28523	2.805673840257	21
85	28756	2.811083922988	7
85	28986	2.814895201213	16
85	29235	2.830743792564	10
85	29453	2.834442301945	8
85	29705	2.840697840257	21
85	30021	2.847855201213	16
85	30257	2.852043922988	7
85	30477	2.85831135677	9
85	30701	2.866986545044	4
85	30954	2.869783792564	10
85	31157	2.873482301945	8
85	31434	2.880873840257	21
85	31662	2.885546545044	4
85	31939	2.890123922988	7
85	32173	2.894719201213	16
85	32379	2.89752735677	9
85	32630	2.908503792564	10
85	32839	2.912922545044	4
85	33069	2.919913840257	21
85	33293	2.923082301945	8
85	33539	2.927855201213	16
85	33798	2.936347922988	7
85	34029	2.94936735677	9
85	34258	2.953562545044	4
85	34509	2.956503792564	10
85	34709	2.961513840257	21
85	34938	2.96536735677	9
85	35171	2.971083922988	7
85	35402	2.974895201213	16
85	35606	2.981642301945	8
85	35863	2.987459905919	18
85	36077	2.991962545044	4
85	36299	2.995113840257	21
85	36558	2.999383792564	10
85	36779	3.002820540445	15
85	36987	3.007562301945	8
85	37217	3.011403922988	7
85	37483	3.02023135677	9
85	37740	3.027779905919	18
85	37974	3.032023792564	10
85	38212	3.036713840257	21
85	38512	3.042026545044	4
85	38810	3.047215201213	16
85	39018	3.050906301945	8
85	39252	3.054603922988	7
85	39488	3.059756078149	14
85	39746	3.066819905919	18
85	40005	3.070423792564	10
85	40204	3.073242545044	4
85	40458	3.076244540445	15
85	40666	3.07960735677	9
85	40908	3.082452612687	15
85	41139	3.085852078149	14
85	41344	3.089513840257	21
85	41565	3.094282301945	8
85	41805	3.098415201213	16
85	42015	3.101643922988	7
85	42263	3.107459905919	18
85	42497	3.110423792564	10
85	42757	3.116713840257	21
85	43001	3.119452078149	14
85	43229	3.122820540445	15
85	43438	3.127466545044	4
85	43663	3.131082301945	8
85	44082	3.140479201213	16
85	44325	3.144523922988	7
85	44569	3.148099905919	18
85	44824	3.152602545044	4
85	45130	3.159132078149	14
85	45380	3.162087792564	10
85	45633	3.166804540445	15
85	45839	3.17045535677	9
85	46110	3.175063398922	9
85	46346	3.177919201213	16
85	46557	3.180683922988	7
85	46775	3.184026301945	8
85	47025	3.187113840257	21
85	47285	3.192602545044	4
85	47520	3.195753840257	21
85	47773	3.198803905919	18
85	47991	3.202332078149	14
85	48201	3.205642301945	8
85	48435	3.21016735677	9
85	48724	3.214660540445	15
85	48932	3.217803922988	7
85	49172	3.224639201213	16
85	49401	3.227459905919	18
85	49662	3.232922545044	4
85	49901	3.237353840257	21
85	50129	3.24056735677	9
85	50355	3.244362301945	8
85	50598	3.247535201213	16
85	50813	3.252043922988	7
85	51051	3.257540540445	15
85	51280	3.263527792564	10
85	51510	3.268099905919	18
85	51766	3.273242545044	4
85	52003	3.276713840257	21
85	52248	3.279562301945	8
85	52511	3.282332078149	14
85	52723	3.28551135677	9
85	52973	3.288487792564	10
85	53175	3.291723922988	7
85	53410	3.297220540445	15
85	53627	3.301615201213	16
85	53867	3.307459905919	18
85	54101	3.310743792564	10
85	54301	3.313882545044	4
85	54538	3.317642301945	8
85	54783	3.321220540445	15
85	55013	3.326895201213	16
85	55269	3.332393840257	21
85	55542	3.33880735677	9
85	55780	3.341996078149	14
85	56004	3.347867922988	7
85	56301	3.352579905919	18
85	56534	3.355687792564	10
85	56741	3.359593840257	21
85	57023	3.36440735677	9
85	57291	3.367215201213	16
85	57527	3.371083922988	7
85	57781	3.373852078149	14
85	58007	3.376746545044	4
85	58247	3.379866301945	8
85	58522	3.386468540445	15
85	58755	3.389463792564	10
85	58968	3.394202545044	4
85	59202	3.397962301945	8
85	59429	3.40152735677	9
85	59676	3.405700540445	15
85	59973	3.410332078149	14
85	60244	3.413379905919	18
85	60463	3.416697840257	21
85	60699	3.420303201213	16
85	60920	3.426123922988	7
85	61170	3.429783792564	10
85	61396	3.432579905919	18
85	61630	3.436682301945	8
85	61880	3.439962545044	4
85	62129	3.444892078149	14
85	62408	3.449860540445	15
85	62613	3.453321840257	21
85	62886	3.460507922988	7
85	63130	3.464815201213	16
85	63362	3.468503792564	10
85	63598	3.472579905919	18
85	63886	3.47960735677	9
85	64160	3.484100540445	15
85	64369	3.487850301945	8
85	64596	3.491433840257	21
85	64834	3.494895201213	16
85	65042	3.499802545044	4
85	65287	3.503132078149	14
85	65518	3.506819905919	18
85	65731	3.512282545044	4
85	66022	3.516683922988	7
85	66266	3.519383792564	10
85	66543	3.525852078149	14
85	66759	3.530123922988	7
85	66977	3.533177840257	21
85	67196	3.537482301945	8
85	67438	3.542575201213	16
85	67730	3.547779905919	18
85	67943	3.551642545044	4
85	68231	3.559242301945	8
85	68467	3.56376735677	9
85	68708	3.566575201213	16
85	68917	3.570153840257	21
85	69150	3.573963922988	7
85	69387	3.582132540445	15
85	69624	3.586819905919	18
85	69856	3.590812078149	14
85	70092	3.593623792564	10
85	70374	3.598172078149	14
85	70604	3.601107453352	5
85	70824	3.60600735677	9
85	71069	3.608820612687	15
85	71270	3.612042301945	8
85	71497	3.616602545044	4
85	71737	3.626123922988	7
85	71984	3.629463792564	10
85	72223	3.633859905919	18
85	72487	3.639242301945	8
85	72715	3.642473840257	21
85	72948	3.64568735677	9
85	73205	3.649107453352	5
85	73426	3.652892078149	14
85	73638	3.659723922988	7
85	73875	3.663535201213	16
85	74139	3.669059905919	18
85	74371	3.672922545044	4
85	74677	3.678172078149	14
85	74902	3.680986301945	8
85	75158	3.68472735677	9
85	75418	3.690231792564	10
85	75642	3.693123453352	5
85	75860	3.696900540445	15
85	76068	3.701323922988	7
85	76367	3.706819905919	18
85	76598	3.710103792564	10
85	76825	3.712842301945	8
85	77100	3.715753840257	21
85	77350	3.718506545044	4
85	77615	3.721220540445	15
85	77861	3.724159201213	16
85	78089	3.726956078149	14
85	78330	3.730367280025	16
85	78583	3.734547453352	5
85	78803	3.73735135677	9
85	79053	3.743067922988	7
85	79306	3.748823792564	10
85	79517	3.752922545044	4
85	79823	3.758492078149	14
85	80051	3.761220540445	15
85	80282	3.764099905919	18
85	80545	3.770443922988	7
85	80780	3.773295201213	16
85	80988	3.77607135677	9
85	81211	3.784202301945	8
85	81469	3.788739905919	18
85	81681	3.792282545044	4
85	81907	3.795082301945	8
85	82163	3.799452078149	14
85	82397	3.802563453352	5
85	82603	3.80600735677	9
85	82846	3.809220540445	15
85	83064	3.812015201213	16
85	83295	3.816983792564	10
85	83503	3.824203922988	7
85	83730	3.828537840257	21
85	83990	3.831619905919	18
85	84248	3.836393840257	21
85	84502	3.839363453352	5
85	84722	3.842180540445	15
85	84954	3.845143792564	10
85	85173	3.848815201213	16
85	85387	3.852043922988	7
85	85604	3.85656735677	9
85	85824	3.862282301945	8
85	86076	3.865052078149	14
85	86316	3.870103792564	10
85	86544	3.872842301945	8
85	86810	3.879786545044	4
85	87060	3.882499905919	18
85	87267	3.88568735677	9
85	87500	3.890763922988	7
85	87781	3.895132078149	14
85	88004	3.899839201213	16
85	88270	3.906937840257	21
85	88535	3.910659905919	18
85	88738	3.913802301945	8
85	89000	3.918313840257	21
85	89272	3.922500540445	15
85	89503	3.925402545044	4
85	89776	3.928663792564	10
85	90013	3.931375201213	16
85	90247	3.935243922988	7
85	90487	3.938387453352	5
85	90707	3.94200735677	9
85	90976	3.947404078149	14
85	91229	3.952983792564	10
85	91440	3.955802545044	4
85	91688	3.959132078149	14
85	91947	3.963433840257	21
85	92246	3.968175201213	16
85	92495	3.971139905919	18
85	92724	3.976523922988	7
85	92987	3.980627453352	5
85	93262	3.985652540445	15
85	93516	3.988739905919	18
85	93731	3.992922545044	4
85	94039	3.998812078149	14
85	94296	4.003226301945	8
85	94549	4.007215201213	16
85	94784	4.010087792564	10
85	95007	4.013700540445	15
85	95209	4.017754318397	8
85	95444	4.02296735677	9
85	95675	4.026763922988	7
85	95925	4.029783792564	10
85	96153	4.032842301945	8
85	96415	4.036713840257	21
85	96658	4.039452078149	14
85	96890	4.042522545044	4
85	97155	4.045380540445	15
85	97420	4.050123922988	7
85	97653	4.053295201213	16
85	97864	4.05703135677	9
85	98107	4.062371453352	5
85	98342	4.068419905919	18
85	98557	4.072602545044	4
85	98789	4.075753840257	21
85	99041	4.079772078149	14
85	99293	4.083223792564	10
85	99560	4.087215201213	16
85	99796	4.09112735677	9
85	100016	4.094746301945	8
85	100293	4.100363922988	7
85	100532	4.103588540445	15
85	100762	4.107139905919	18
85	100978	4.112842301945	8
85	101237	4.115543792564	10
85	101462	4.118492078149	14
85	101694	4.122243453352	5
85	101919	4.12504735677	9
85	102186	4.129135201213	16
85	102422	4.133963922988	7
85	102681	4.137540540445	15
85	102883	4.141546545044	4
85	103139	4.147139905919	18
85	103379	4.150423792564	10
85	103661	4.154883453352	5
85	103893	4.158492078149	14
85	104120	4.161540540445	15
85	104344	4.164980608475	20
85	104576	4.169455201213	16
85	104785	4.173402545044	4
85	105009	4.176521840257	21
85	105234	4.17976735677	9
85	105461	4.184329860961	21
85	105714	4.187459905919	18
85	105937	4.191642545044	4
85	106198	4.194420608475	20
85	106465	4.199562301945	8
85	106740	4.202820540445	15
85	107018	4.208495201213	16
85	107270	4.212183792564	10
85	107520	4.216467453352	5
85	107726	4.220827922988	7
85	107949	4.22407135677	9
85	108201	4.227779905919	18
85	108422	4.231097840257	21
85	108735	4.236665860961	21
85	109006	4.240522301945	8
85	109288	4.244947453352	5
85	109513	4.248815201213	16
85	109737	4.252076078149	14
85	109946	4.25479135677	9
85	110240	4.261463792564	10
85	110449	4.264203922988	7
85	110694	4.267139905919	18
85	110941	4.273162301945	8
85	111275	4.278268177885	14
85	111510	4.280963453352	5
85	111731	4.284020608475	20
85	111966	4.286980540445	15
85	112186	4.289775201213	16
85	112415	4.294716277621	14
85	112642	4.297623792564	10
85	112844	4.302506545044	4
85	113076	4.30520735677	9
85	113342	4.309003922988	7
85	113599	4.312922545044	4
85	113840	4.316217840257	21
85	114117	4.319123905919	18
85	114373	4.323223792564	10
85	114576	4.326282301945	8
85	114836	4.330563453352	5
85	115104	4.335535201213	16
85	115356	4.338964540445	15
85	115600	4.342316078149	14
85	115824	4.345604608475	20
85	116094	4.349059905919	18
85	116329	4.352602545044	4
85	116561	4.355433840257	21
85	116798	4.359242301945	8
85	117052	4.362407792564	10
85	117301	4.365700540445	15
85	117568	4.368495201213	16
85	117823	4.372307453352	5
85	118043	4.376092078149	14
85	118263	4.383563922988	7
85	118494	4.38759135677	9
85	118756	4.390743792564	10
85	118980	4.394420608475	20
85	119225	4.398172078149	14
85	119452	4.401220540445	15
85	119666	4.405322301945	8
85	119965	4.410415201213	16
85	120204	4.41434639519	23
85	120427	4.417803922988	7
85	120693	4.422826545044	4
85	121010	4.429059905919	18
85	121275	4.432663792564	10
85	121532	4.43642639519	23
85	121779	4.439132078149	14
85	122002	4.442100608475	20
85	122298	4.446660540445	15
85	122510	4.449803922988	7
85	122749	4.454255201213	16
85	123008	4.46104735677	9
85	123238	4.465625840257	21
85	123475	4.468586545044	4
85	123715	4.471513860961	21
85	124074	4.477059905919	18
85	124352	4.481540540445	15
85	124590	4.486404608475	20
85	124833	4.48986639519	23
85	125053	4.492892078149	14
85	125333	4.497891453352	5
85	125537	4.50085856963	4
85	126226	4.51096735677	9
85	126577	4.516183792564	10
85	126918	4.520580540445	15
85	127196	4.52474639519	23
85	127453	4.528745881665	21
85	127708	4.532043922988	7
85	127981	4.537706545044	4
85	128294	4.543187453352	5
85	128524	4.546147905919	18
85	128756	4.548948608475	20
85	129190	4.55463135677	9
85	129427	4.557497902369	21
85	129683	4.56088735677	9
85	130002	4.567225923073	21
85	130235	4.570666545044	4
85	130464	4.573963922988	7
85	130706	4.577372078149	14
85	130910	4.580122301945	8
85	131186	4.583860005047	18
85	131659	4.589907453352	5
85	131897	4.592602545044	4
85	132178	4.595523453352	5
85	132436	4.599348104175	18
85	132687	4.603402301945	8
85	132974	4.606191201213	16
85	133216	4.608884688537	20
85	133508	4.613287792564	10
85	133730	4.616380078149	14
85	133942	4.619433840257	21
85	134193	4.62328735677	9
85	134462	4.626479280025	16
85	134715	4.629467922988	7
85	134977	4.633012768599	20
85	135249	4.63593039519	23
85	135509	4.639363453352	5
85	135713	4.642153840257	21
85	135952	4.646282301945	8
85	136225	4.651375201213	16
85	136472	4.655860848661	20
85	136731	4.659815886304	10
85	136965	4.66328735677	9
85	137198	4.666907922988	7
85	137543	4.671939905919	18
85	137802	4.674883453352	5
85	138013	4.678282301945	8
85	138281	4.681300540445	15
85	138530	4.684076078149	14
85	138808	4.690123922988	7
85	139082	4.69496735677	9
85	139309	4.698153840257	21
85	139549	4.700844177885	14
85	139766	4.705066545044	4
85	140025	4.70805854387	23
85	140271	4.710979905919	18
85	140556	4.715975792564	10
85	140861	4.720583886304	10
85	141109	4.723756078149	14
85	141327	4.72664735677	9
85	141667	4.731203453352	5
85	141904	4.734603922988	7
85	142144	4.740650301945	8
85	142385	4.744922545044	4
85	142642	4.748596612687	15
85	142879	4.752500608475	20
85	143135	4.756682301945	8
85	143408	4.76024735677	9
85	143687	4.764099905919	18
85	143964	4.768697840257	21
85	144233	4.771436078149	14
85	144513	4.77658639519	23
85	144730	4.780127201213	16
85	144966	4.784260540445	15
85	145199	4.788255280025	16
85	145427	4.791146545044	4
85	145680	4.793943792564	10
85	145989	4.798812078149	14
85	146240	4.801540540445	15
85	146552	4.806547453352	5
85	146801	4.809539905919	18
85	147050	4.815066301945	8
85	147311	4.818100608475	20
85	147549	4.82263456963	4
85	147852	4.827139905919	18
85	148097	4.830103792564	10
85	148342	4.832820608475	20
85	148589	4.836073840257	21
85	148840	4.838812078149	14
85	149051	4.841627922988	7
85	149273	4.84455135677	9
85	149499	4.848202301945	8
85	149869	4.854660540445	15
85	150123	4.857485041315	6
85	150367	4.860627453352	5
85	150601	4.864663398922	9
85	150855	4.867779905919	18
85	151100	4.870743792564	10
85	151346	4.874031201213	16
85	151617	4.87706639519	23
85	151897	4.882243453352	5
85	152116	4.88664735677	9
85	152379	4.890012078149	14
85	152619	4.893643922988	7
85	152902	4.898740608475	20
85	153153	4.901844540445	15
85	153413	4.905485041315	6
85	153680	4.909962301945	8
85	153920	4.912890545044	4
85	154181	4.915843453352	5
85	154447	4.921290318397	8
85	154702	4.924100540445	15
85	154960	4.927763905919	18
85	155185	4.930617840257	21
85	155440	4.933463792564	10
85	155662	4.936703280025	16
85	155920	4.941005041315	6
85	156158	4.94594656963	4
85	156423	4.948823792564	10
85	156640	4.952282545044	4
85	156909	4.955071358837	16
85	157164	4.957940608475	20
85	157402	4.960643453352	5
85	157661	4.966106301945	8
85	157914	4.96890639519	23
85	158177	4.973963922988	7
85	158412	4.976959201213	16
85	158619	4.980073840257	21
85	158851	4.98439135677	9
85	159106	4.988076078149	14
85	159364	4.99290639519	23
85	159660	4.997325041315	6
85	159919	5.003082301945	8
85	160178	5.005843905919	18
85	160382	5.008697840257	21
85	160653	5.012503792564	10
85	160910	5.015243922988	7
85	161174	5.018156078149	14
85	161401	5.021380540445	15
85	161605	5.024106545044	4
85	161876	5.028823792564	10
85	162372	5.035923905919	18
85	162596	5.038900608475	20
85	162836	5.041603453352	5
85	163074	5.045149041315	6
85	163281	5.04888735677	9
85	163501	5.052186301945	8
85	163742	5.055563922988	7
85	164029	5.060975201213	16
85	164286	5.06441039519	23
85	164538	5.067459905919	18
85	165053	5.075274545044	4
85	165322	5.078567792564	10
85	165626	5.083604540445	15
85	165882	5.08696735677	9
85	166136	5.089803922988	7
85	166382	5.09297056963	4
85	166633	5.097946301945	8
85	166976	5.102812078149	14
85	167285	5.109587453352	5
85	167617	5.114263792564	10
85	167888	5.118922301945	8
85	168723	5.130123922988	7
85	168951	5.133226545044	4
85	169199	5.136319201213	16
85	169486	5.14135439519	23
85	169716	5.145193840257	21
85	170170	5.150900612687	15
85	170453	5.15669535677	9
85	170705	5.159642545044	4
85	170983	5.162483601894	5
85	171214	5.165523905919	18
85	171523	5.170443922988	7
85	171765	5.173940608475	20
85	172037	5.178407398922	9
85	172305	5.18153039519	23
85	172563	5.184515750436	5
85	172807	5.187260078149	14
85	173311	5.194191280025	16
85	173605	5.198492078149	14
85	173827	5.201284608475	20
85	174073	5.20410639519	23
85	174302	5.206953840257	21
85	174618	5.212043922988	7
85	174887	5.214756005047	18
85	175130	5.217455201213	16
85	175367	5.221411453352	5
85	175597	5.225860540445	15
85	175921	5.230743792564	10
85	176382	5.23610639519	23
85	176666	5.240522301945	8
85	176950	5.243523453352	5
85	177174	5.247684608475	20
85	177462	5.252655201213	16
85	177755	5.25717535677	9
85	178018	5.260540078149	14
85	178249	5.263764540445	15
85	178507	5.267165041315	6
85	178770	5.270103792564	10
85	178988	5.272807398922	9
85	179242	5.275523453352	5
85	179483	5.279091905919	18
85	179693	5.28216735677	9
85	179932	5.284980608475	20
85	180151	5.287882301945	8
85	180410	5.291083922988	7
85	180674	5.294255201213	16
85	180884	5.297337840257	21
85	181114	5.301191399728	22
85	181338	5.304282545044	4
85	181625	5.30842639519	23
85	181900	5.312093163147	6
85	182132	5.315380005047	18
85	182417	5.319913840257	21
85	182669	5.322842545044	4
85	182983	5.32743454387	23
85	183226	5.330415201213	16
85	183490	5.334460078149	14
85	183751	5.339911399728	22
85	184005	5.342891922988	7
85	184283	5.347779905919	18
85	184524	5.350743792564	10
85	184974	5.357123453352	5
85	185268	5.361692078149	14
85	185528	5.364973041315	6
85	185735	5.368426545044	4
85	186007	5.37175439519	23
85	186255	5.375215201213	16
85	186525	5.380683922988	7
85	186747	5.383593840257	21
85	186992	5.386708608475	20
85	187310	5.391619905919	18
85	187950	5.400004608475	20
85	188249	5.404829041315	6
85	188480	5.408084540445	15
85	188693	5.411082301945	8
85	188932	5.414283922988	7
85	189231	5.420199399728	22
85	189508	5.425135201213	16
85	189765	5.427932078149	14
85	190034	5.43081039519	23
85	190331	5.436483453352	5
85	190722	5.441540540445	15
85	191020	5.446131905919	18
85	191255	5.449769840257	21
85	191744	5.455017860961	21
85	191995	5.457935931025	11
85	192240	5.461212078149	14
85	192458	5.464027922988	7
85	192729	5.469059905919	18
85	192999	5.473562545044	4
85	193262	5.476375399728	22
85	193538	5.47925854387	23
85	193857	5.484682301945	8
85	194141	5.487677041315	6
85	194377	5.490563453352	5
85	194587	5.493311931025	11
85	194815	5.496057840257	21
85	195105	5.500660608475	20
85	195325	5.503575399728	22
85	195804	5.511183201213	16
85	196082	5.515753840257	21
85	196363	5.51930639519	23
85	196593	5.522442301945	8
85	196936	5.527124540445	15
85	197253	5.531802545044	4
85	197565	5.536147453352	5
85	197800	5.539085041315	6
85	198064	5.544027922988	7
85	198877	5.555839201213	16
85	199242	5.560643453352	5
85	199474	5.563577840257	21
85	199727	5.56679135677	9
85	200001	5.569492612687	15
85	200616	5.576839398922	9
85	200936	5.582084608475	20
85	201190	5.585946301945	8
85	201522	5.590747922988	7
85	202132	5.598319280025	16
85	202465	5.602842545044	4
85	202745	5.606503792564	10
85	203045	5.611083922988	7
85	203510	5.617603453352	5
85	203771	5.622151399728	22
85	204004	5.625263931025	11
85	204254	5.628124078149	14
85	204511	5.63237839519	23
85	204964	5.638313840257	21
85	205276	5.642986545044	4
85	205573	5.649482301945	8
85	205827	5.652892078149	14
85	206044	5.655751399728	22
85	206359	5.660308608475	20
85	206623	5.663559886304	10
85	206859	5.66642654387	23
85	207091	5.669643922988	7
85	207354	5.672989041315	6
85	207648	5.67770639519	23
85	207855	5.680799931025	11
85	208085	5.684682301945	8
85	208324	5.68792735677	9
85	208598	5.690652078149	14
85	208855	5.693447980044	10
85	209092	5.697163922988	7
85	209358	5.700031931025	11
85	209635	5.703523905919	18
85	209995	5.708100540445	15
85	210280	5.712564688537	20
85	210654	5.717080073784	10